<?xml version="1.0" encoding="ISO-8859-1"?>
<modeling>
 <generator>
  <i name="program" type="string">vasp </i>
  <i name="version" type="string">5.2.12  </i>
  <i name="subversion" type="string">11Nov11 complex                                                      serial </i>
  <i name="platform" type="string">LinuxIFC </i>
  <i name="date" type="string">2012 04 19 </i>
  <i name="time" type="string">03:40:00 </i>
 </generator>
 <incar>
  <i type="string" name="PREC">high</i>
  <i type="int" name="IBRION">    -1</i>
  <i type="int" name="ISIF">     2</i>
  <i name="ENCUT">    350.00000000</i>
  <i type="int" name="NBANDS">    34</i>
  <i type="int" name="ISMEAR">    -5</i>
  <i name="SIGMA">      0.10000000</i>
 </incar>
 <kpoints>
  <generation param="Gamma">
   <v type="int" name="divisions">       8        8        8 </v>
   <v name="usershift">      0.00000000       0.00000000       0.00000000 </v>
   <v name="genvec1">      0.12500000       0.00000000       0.00000000 </v>
   <v name="genvec2">      0.00000000       0.12500000       0.00000000 </v>
   <v name="genvec3">      0.00000000       0.00000000       0.12500000 </v>
   <v name="shift">      0.00000000       0.00000000       0.00000000 </v>
  </generation>
  <varray name="kpointlist" >
   <v>       0.00000000       0.00000000       0.00000000 </v>
   <v>       0.12500000       0.00000000       0.00000000 </v>
   <v>       0.25000000       0.00000000       0.00000000 </v>
   <v>       0.37500000       0.00000000       0.00000000 </v>
   <v>       0.50000000       0.00000000       0.00000000 </v>
   <v>       0.12500000       0.12500000       0.00000000 </v>
   <v>       0.25000000       0.12500000       0.00000000 </v>
   <v>       0.37500000       0.12500000       0.00000000 </v>
   <v>       0.50000000       0.12500000       0.00000000 </v>
   <v>      -0.37500000       0.12500000       0.00000000 </v>
   <v>      -0.25000000       0.12500000       0.00000000 </v>
   <v>      -0.12500000       0.12500000       0.00000000 </v>
   <v>       0.25000000       0.25000000       0.00000000 </v>
   <v>       0.37500000       0.25000000       0.00000000 </v>
   <v>       0.50000000       0.25000000       0.00000000 </v>
   <v>      -0.37500000       0.25000000       0.00000000 </v>
   <v>      -0.25000000       0.25000000       0.00000000 </v>
   <v>       0.37500000       0.37500000       0.00000000 </v>
   <v>       0.50000000       0.37500000       0.00000000 </v>
   <v>      -0.37500000       0.37500000       0.00000000 </v>
   <v>       0.50000000       0.50000000       0.00000000 </v>
   <v>       0.12500000       0.12500000       0.12500000 </v>
   <v>       0.25000000       0.12500000       0.12500000 </v>
   <v>       0.37500000       0.12500000       0.12500000 </v>
   <v>       0.50000000       0.12500000       0.12500000 </v>
   <v>      -0.37500000       0.12500000       0.12500000 </v>
   <v>      -0.25000000       0.12500000       0.12500000 </v>
   <v>      -0.12500000       0.12500000       0.12500000 </v>
   <v>       0.25000000       0.25000000       0.12500000 </v>
   <v>       0.37500000       0.25000000       0.12500000 </v>
   <v>       0.50000000       0.25000000       0.12500000 </v>
   <v>      -0.37500000       0.25000000       0.12500000 </v>
   <v>      -0.25000000       0.25000000       0.12500000 </v>
   <v>      -0.12500000       0.25000000       0.12500000 </v>
   <v>       0.37500000       0.37500000       0.12500000 </v>
   <v>       0.50000000       0.37500000       0.12500000 </v>
   <v>      -0.37500000       0.37500000       0.12500000 </v>
   <v>      -0.25000000       0.37500000       0.12500000 </v>
   <v>      -0.12500000       0.37500000       0.12500000 </v>
   <v>       0.50000000       0.50000000       0.12500000 </v>
   <v>      -0.37500000       0.50000000       0.12500000 </v>
   <v>      -0.25000000       0.50000000       0.12500000 </v>
   <v>      -0.12500000       0.50000000       0.12500000 </v>
   <v>      -0.37500000      -0.37500000       0.12500000 </v>
   <v>      -0.25000000      -0.37500000       0.12500000 </v>
   <v>      -0.25000000      -0.25000000       0.12500000 </v>
   <v>       0.25000000       0.25000000       0.25000000 </v>
   <v>       0.37500000       0.25000000       0.25000000 </v>
   <v>       0.50000000       0.25000000       0.25000000 </v>
   <v>      -0.37500000       0.25000000       0.25000000 </v>
   <v>      -0.25000000       0.25000000       0.25000000 </v>
   <v>       0.37500000       0.37500000       0.25000000 </v>
   <v>       0.50000000       0.37500000       0.25000000 </v>
   <v>      -0.37500000       0.37500000       0.25000000 </v>
   <v>      -0.25000000       0.37500000       0.25000000 </v>
   <v>       0.50000000       0.50000000       0.25000000 </v>
   <v>      -0.37500000       0.50000000       0.25000000 </v>
   <v>      -0.25000000       0.50000000       0.25000000 </v>
   <v>      -0.37500000      -0.37500000       0.25000000 </v>
   <v>       0.37500000       0.37500000       0.37500000 </v>
   <v>       0.50000000       0.37500000       0.37500000 </v>
   <v>      -0.37500000       0.37500000       0.37500000 </v>
   <v>       0.50000000       0.50000000       0.37500000 </v>
   <v>      -0.37500000       0.50000000       0.37500000 </v>
   <v>       0.50000000       0.50000000       0.50000000 </v>
  </varray>
  <varray name="weights" >
   <v>       0.00195312 </v>
   <v>       0.01171875 </v>
   <v>       0.01171875 </v>
   <v>       0.01171875 </v>
   <v>       0.00585938 </v>
   <v>       0.01171875 </v>
   <v>       0.02343750 </v>
   <v>       0.02343750 </v>
   <v>       0.02343750 </v>
   <v>       0.02343750 </v>
   <v>       0.02343750 </v>
   <v>       0.01171875 </v>
   <v>       0.01171875 </v>
   <v>       0.02343750 </v>
   <v>       0.02343750 </v>
   <v>       0.02343750 </v>
   <v>       0.01171875 </v>
   <v>       0.01171875 </v>
   <v>       0.02343750 </v>
   <v>       0.01171875 </v>
   <v>       0.00585938 </v>
   <v>       0.00390625 </v>
   <v>       0.01171875 </v>
   <v>       0.01171875 </v>
   <v>       0.01171875 </v>
   <v>       0.01171875 </v>
   <v>       0.01171875 </v>
   <v>       0.01171875 </v>
   <v>       0.01171875 </v>
   <v>       0.02343750 </v>
   <v>       0.02343750 </v>
   <v>       0.02343750 </v>
   <v>       0.02343750 </v>
   <v>       0.02343750 </v>
   <v>       0.01171875 </v>
   <v>       0.02343750 </v>
   <v>       0.02343750 </v>
   <v>       0.02343750 </v>
   <v>       0.02343750 </v>
   <v>       0.01171875 </v>
   <v>       0.02343750 </v>
   <v>       0.02343750 </v>
   <v>       0.01171875 </v>
   <v>       0.01171875 </v>
   <v>       0.02343750 </v>
   <v>       0.01171875 </v>
   <v>       0.00390625 </v>
   <v>       0.01171875 </v>
   <v>       0.01171875 </v>
   <v>       0.01171875 </v>
   <v>       0.01171875 </v>
   <v>       0.01171875 </v>
   <v>       0.02343750 </v>
   <v>       0.02343750 </v>
   <v>       0.02343750 </v>
   <v>       0.01171875 </v>
   <v>       0.02343750 </v>
   <v>       0.01171875 </v>
   <v>       0.01171875 </v>
   <v>       0.00390625 </v>
   <v>       0.01171875 </v>
   <v>       0.01171875 </v>
   <v>       0.01171875 </v>
   <v>       0.01171875 </v>
   <v>       0.00195312 </v>
  </varray>
  <varray name="tetrahedronlist"  type="int" >
   <v type="int" >       12        1        2        6       22 </v>
   <v type="int" >       12        2        6        7       23 </v>
   <v type="int" >       12        2        3        7       23 </v>
   <v type="int" >       12        2        6       22       23 </v>
   <v type="int" >       12        3        7        8       24 </v>
   <v type="int" >       12        3        4        8       24 </v>
   <v type="int" >       12        3        7       23       24 </v>
   <v type="int" >       12        4        8        9       25 </v>
   <v type="int" >       12        4        5        9       25 </v>
   <v type="int" >       12        4        8       24       25 </v>
   <v type="int" >       12        5        9       10       26 </v>
   <v type="int" >       12        4        5       10       26 </v>
   <v type="int" >       12        5        9       25       26 </v>
   <v type="int" >       12        4       10       11       27 </v>
   <v type="int" >       12        3        4       11       27 </v>
   <v type="int" >       12        4       10       26       27 </v>
   <v type="int" >       12        3       11       12       28 </v>
   <v type="int" >       12        2        3       12       28 </v>
   <v type="int" >       12        3       11       27       28 </v>
   <v type="int" >       12        2        2        6       12 </v>
   <v type="int" >       12        1        2        2        6 </v>
   <v type="int" >       12        2        6       12       28 </v>
   <v type="int" >       12        6        7       13       29 </v>
   <v type="int" >       12        6        7       23       29 </v>
   <v type="int" >       12        6       22       23       29 </v>
   <v type="int" >       12        7       13       14       30 </v>
   <v type="int" >       12        7        8       14       30 </v>
   <v type="int" >       12        7        8       24       30 </v>
   <v type="int" >       12        7       13       29       30 </v>
   <v type="int" >       12        7       23       29       30 </v>
   <v type="int" >       12        7       23       24       30 </v>
   <v type="int" >       12        8       14       15       31 </v>
   <v type="int" >       12        8        9       15       31 </v>
   <v type="int" >       12        8        9       25       31 </v>
   <v type="int" >       12        8       14       30       31 </v>
   <v type="int" >       12        8       24       30       31 </v>
   <v type="int" >       12        8       24       25       31 </v>
   <v type="int" >       12        9       15       16       32 </v>
   <v type="int" >       12        9       10       16       32 </v>
   <v type="int" >       12        9       10       26       32 </v>
   <v type="int" >       12        9       15       31       32 </v>
   <v type="int" >       12        9       25       31       32 </v>
   <v type="int" >       12        9       25       26       32 </v>
   <v type="int" >       12       10       16       17       33 </v>
   <v type="int" >       12       10       11       17       33 </v>
   <v type="int" >       12       10       11       27       33 </v>
   <v type="int" >       12       10       16       32       33 </v>
   <v type="int" >       12       10       26       32       33 </v>
   <v type="int" >       12       10       26       27       33 </v>
   <v type="int" >       12       11       11       17       34 </v>
   <v type="int" >       12       11       11       12       34 </v>
   <v type="int" >       12       11       12       28       34 </v>
   <v type="int" >       12       11       17       33       34 </v>
   <v type="int" >       12       11       27       33       34 </v>
   <v type="int" >       12       11       27       28       34 </v>
   <v type="int" >       12        3        7       11       12 </v>
   <v type="int" >       12        2        3        7       12 </v>
   <v type="int" >       12        2        6        7       12 </v>
   <v type="int" >       12        7       11       12       34 </v>
   <v type="int" >       12        7       12       28       34 </v>
   <v type="int" >       12        6        7       12       28 </v>
   <v type="int" >       12       13       14       18       35 </v>
   <v type="int" >       12       13       14       30       35 </v>
   <v type="int" >       12       13       29       30       35 </v>
   <v type="int" >       12       14       18       19       36 </v>
   <v type="int" >       12       14       15       19       36 </v>
   <v type="int" >       12       14       15       31       36 </v>
   <v type="int" >       12       14       18       35       36 </v>
   <v type="int" >       12       14       30       35       36 </v>
   <v type="int" >       12       14       30       31       36 </v>
   <v type="int" >       12       15       19       20       37 </v>
   <v type="int" >       12       15       16       20       37 </v>
   <v type="int" >       12       15       16       32       37 </v>
   <v type="int" >       12       15       19       36       37 </v>
   <v type="int" >       12       15       31       36       37 </v>
   <v type="int" >       12       15       31       32       37 </v>
   <v type="int" >       12       16       16       20       38 </v>
   <v type="int" >       12       16       16       17       38 </v>
   <v type="int" >       12       16       17       33       38 </v>
   <v type="int" >       12       16       20       37       38 </v>
   <v type="int" >       12       16       32       37       38 </v>
   <v type="int" >       12       16       32       33       38 </v>
   <v type="int" >       12       10       16       17       39 </v>
   <v type="int" >       12       10       11       17       39 </v>
   <v type="int" >       12       11       17       34       39 </v>
   <v type="int" >       12       16       17       38       39 </v>
   <v type="int" >       12       17       33       38       39 </v>
   <v type="int" >       12       17       33       34       39 </v>
   <v type="int" >       12        4        8       10       11 </v>
   <v type="int" >       12        3        4        8       11 </v>
   <v type="int" >       12        3        7        8       11 </v>
   <v type="int" >       12        8       10       11       39 </v>
   <v type="int" >       12        8       11       34       39 </v>
   <v type="int" >       12        7        8       11       34 </v>
   <v type="int" >       12       18       19       21       40 </v>
   <v type="int" >       12       18       19       36       40 </v>
   <v type="int" >       12       18       35       36       40 </v>
   <v type="int" >       12       19       19       21       41 </v>
   <v type="int" >       12       19       19       20       41 </v>
   <v type="int" >       12       19       20       37       41 </v>
   <v type="int" >       12       19       21       40       41 </v>
   <v type="int" >       12       19       36       40       41 </v>
   <v type="int" >       12       19       36       37       41 </v>
   <v type="int" >       12       15       19       20       42 </v>
   <v type="int" >       12       15       16       20       42 </v>
   <v type="int" >       12       16       20       38       42 </v>
   <v type="int" >       12       19       20       41       42 </v>
   <v type="int" >       12       20       37       41       42 </v>
   <v type="int" >       12       20       37       38       42 </v>
   <v type="int" >       12        9       15       16       43 </v>
   <v type="int" >       12        9       10       16       43 </v>
   <v type="int" >       12       10       16       39       43 </v>
   <v type="int" >       12       15       16       42       43 </v>
   <v type="int" >       12       16       38       42       43 </v>
   <v type="int" >       12       16       38       39       43 </v>
   <v type="int" >       12        5        9        9       10 </v>
   <v type="int" >       12        4        5        9       10 </v>
   <v type="int" >       12        4        8        9       10 </v>
   <v type="int" >       12        9        9       10       43 </v>
   <v type="int" >       12        9       10       39       43 </v>
   <v type="int" >       12        8        9       10       39 </v>
   <v type="int" >       12       18       19       21       44 </v>
   <v type="int" >       12       19       21       41       44 </v>
   <v type="int" >       12       21       40       41       44 </v>
   <v type="int" >       12       14       18       19       45 </v>
   <v type="int" >       12       14       15       19       45 </v>
   <v type="int" >       12       15       19       42       45 </v>
   <v type="int" >       12       18       19       44       45 </v>
   <v type="int" >       12       19       41       44       45 </v>
   <v type="int" >       12       19       41       42       45 </v>
   <v type="int" >       12        8       14       15       39 </v>
   <v type="int" >       12        8        9       15       39 </v>
   <v type="int" >       12        9       15       39       43 </v>
   <v type="int" >       12       14       15       39       45 </v>
   <v type="int" >       12       15       39       42       45 </v>
   <v type="int" >       12       15       39       42       43 </v>
   <v type="int" >       12       13       14       18       46 </v>
   <v type="int" >       12       14       18       45       46 </v>
   <v type="int" >       12       18       44       45       46 </v>
   <v type="int" >       12        7       13       14       34 </v>
   <v type="int" >       12        7        8       14       34 </v>
   <v type="int" >       12        8       14       34       39 </v>
   <v type="int" >       12       13       14       34       46 </v>
   <v type="int" >       12       14       34       45       46 </v>
   <v type="int" >       12       14       34       39       45 </v>
   <v type="int" >       12        6        7       13       28 </v>
   <v type="int" >       12        7       13       28       34 </v>
   <v type="int" >       12       13       28       34       46 </v>
   <v type="int" >       12       22       23       29       47 </v>
   <v type="int" >       12       23       29       30       48 </v>
   <v type="int" >       12       23       24       30       48 </v>
   <v type="int" >       12       23       29       47       48 </v>
   <v type="int" >       12       24       30       31       49 </v>
   <v type="int" >       12       24       25       31       49 </v>
   <v type="int" >       12       24       30       48       49 </v>
   <v type="int" >       12       25       31       32       50 </v>
   <v type="int" >       12       25       26       32       50 </v>
   <v type="int" >       12       25       31       49       50 </v>
   <v type="int" >       12       26       32       33       51 </v>
   <v type="int" >       12       26       27       33       51 </v>
   <v type="int" >       12       26       32       50       51 </v>
   <v type="int" >       12       27       33       34       46 </v>
   <v type="int" >       12       27       28       34       46 </v>
   <v type="int" >       12       27       33       46       51 </v>
   <v type="int" >       12       29       30       35       52 </v>
   <v type="int" >       12       29       30       48       52 </v>
   <v type="int" >       12       29       47       48       52 </v>
   <v type="int" >       12       30       35       36       53 </v>
   <v type="int" >       12       30       31       36       53 </v>
   <v type="int" >       12       30       31       49       53 </v>
   <v type="int" >       12       30       35       52       53 </v>
   <v type="int" >       12       30       48       52       53 </v>
   <v type="int" >       12       30       48       49       53 </v>
   <v type="int" >       12       31       36       37       54 </v>
   <v type="int" >       12       31       32       37       54 </v>
   <v type="int" >       12       31       32       50       54 </v>
   <v type="int" >       12       31       36       53       54 </v>
   <v type="int" >       12       31       49       53       54 </v>
   <v type="int" >       12       31       49       50       54 </v>
   <v type="int" >       12       32       37       38       55 </v>
   <v type="int" >       12       32       33       38       55 </v>
   <v type="int" >       12       32       33       51       55 </v>
   <v type="int" >       12       32       37       54       55 </v>
   <v type="int" >       12       32       50       54       55 </v>
   <v type="int" >       12       32       50       51       55 </v>
   <v type="int" >       12       33       38       39       45 </v>
   <v type="int" >       12       33       34       39       45 </v>
   <v type="int" >       12       33       34       45       46 </v>
   <v type="int" >       12       33       38       45       55 </v>
   <v type="int" >       12       33       45       51       55 </v>
   <v type="int" >       12       33       45       46       51 </v>
   <v type="int" >       12       35       36       40       56 </v>
   <v type="int" >       12       35       36       53       56 </v>
   <v type="int" >       12       35       52       53       56 </v>
   <v type="int" >       12       36       40       41       57 </v>
   <v type="int" >       12       36       37       41       57 </v>
   <v type="int" >       12       36       37       54       57 </v>
   <v type="int" >       12       36       40       56       57 </v>
   <v type="int" >       12       36       53       56       57 </v>
   <v type="int" >       12       36       53       54       57 </v>
   <v type="int" >       12       37       41       42       58 </v>
   <v type="int" >       12       37       38       42       58 </v>
   <v type="int" >       12       37       38       55       58 </v>
   <v type="int" >       12       37       41       57       58 </v>
   <v type="int" >       12       37       54       57       58 </v>
   <v type="int" >       12       37       54       55       58 </v>
   <v type="int" >       12       38       42       42       43 </v>
   <v type="int" >       12       38       39       42       43 </v>
   <v type="int" >       12       38       39       42       45 </v>
   <v type="int" >       12       38       42       42       58 </v>
   <v type="int" >       12       38       42       55       58 </v>
   <v type="int" >       12       38       42       45       55 </v>
   <v type="int" >       12       40       41       44       59 </v>
   <v type="int" >       12       40       41       57       59 </v>
   <v type="int" >       12       40       56       57       59 </v>
   <v type="int" >       12       41       44       45       55 </v>
   <v type="int" >       12       41       42       45       55 </v>
   <v type="int" >       12       41       42       55       58 </v>
   <v type="int" >       12       41       44       55       59 </v>
   <v type="int" >       12       41       55       57       59 </v>
   <v type="int" >       12       41       55       57       58 </v>
   <v type="int" >       12       44       45       46       51 </v>
   <v type="int" >       12       44       45       51       55 </v>
   <v type="int" >       12       44       51       55       59 </v>
   <v type="int" >       12       47       48       52       60 </v>
   <v type="int" >       12       48       52       53       61 </v>
   <v type="int" >       12       48       49       53       61 </v>
   <v type="int" >       12       48       52       60       61 </v>
   <v type="int" >       12       49       53       54       62 </v>
   <v type="int" >       12       49       50       54       62 </v>
   <v type="int" >       12       49       53       61       62 </v>
   <v type="int" >       12       50       54       55       59 </v>
   <v type="int" >       12       50       51       55       59 </v>
   <v type="int" >       12       50       54       59       62 </v>
   <v type="int" >       12       52       53       56       63 </v>
   <v type="int" >       12       52       53       61       63 </v>
   <v type="int" >       12       52       60       61       63 </v>
   <v type="int" >       12       53       56       57       64 </v>
   <v type="int" >       12       53       54       57       64 </v>
   <v type="int" >       12       53       54       62       64 </v>
   <v type="int" >       12       53       56       63       64 </v>
   <v type="int" >       12       53       61       63       64 </v>
   <v type="int" >       12       53       61       62       64 </v>
   <v type="int" >       12       54       57       57       58 </v>
   <v type="int" >       12       54       55       57       58 </v>
   <v type="int" >       12       54       55       57       59 </v>
   <v type="int" >       12       54       57       57       64 </v>
   <v type="int" >       12       54       57       62       64 </v>
   <v type="int" >       12       54       57       59       62 </v>
   <v type="int" >       12       56       57       59       62 </v>
   <v type="int" >       12       56       57       62       64 </v>
   <v type="int" >       12       56       62       63       64 </v>
   <v type="int" >       12       60       61       63       65 </v>
   <v type="int" >       12       61       63       63       64 </v>
   <v type="int" >       12       61       62       63       64 </v>
   <v type="int" >       12       61       63       63       65 </v>
  </varray>
  <i name="volumeweight">      0.00032552 </i>
 </kpoints>
 <parameters>
  <separator name="general" >
   <i type="string" name="SYSTEM">unknown system</i>
   <i type="logical" name="LCOMPAT"> F  </i>
  </separator>
  <separator name="electronic" >
   <i type="string" name="PREC">high</i>
   <i name="ENMAX">    350.00000000</i>
   <i name="ENAUG">    516.45600000</i>
   <i name="EDIFF">      0.00010000</i>
   <i type="int" name="IALGO">    38</i>
   <i type="int" name="IWAVPR">     0</i>
   <i type="int" name="NBANDS">    34</i>
   <i name="NELECT">     43.00000000</i>
   <i type="int" name="TURBO">     0</i>
   <i type="int" name="IRESTART">     0</i>
   <i type="int" name="NREBOOT">     0</i>
   <i type="int" name="NMIN">     0</i>
   <i name="EREF">      0.00000000</i>
   <separator name="electronic smearing" >
    <i type="int" name="ISMEAR">    -5</i>
    <i name="SIGMA">      0.10000000</i>
    <i name="KSPACING">      0.50000000</i>
    <i type="logical" name="KGAMMA"> T  </i>
   </separator>
   <separator name="electronic projectors" >
    <i type="logical" name="LREAL"> F  </i>
    <v name="ROPT">      0.00000000      0.00000000</v>
    <i type="int" name="LMAXPAW">  -100</i>
    <i type="int" name="LMAXMIX">     2</i>
    <i type="logical" name="NLSPLINE"> F  </i>
   </separator>
   <separator name="electronic startup" >
    <i type="int" name="ISTART">     1</i>
    <i type="int" name="ICHARG">     0</i>
    <i type="int" name="INIWAV">     1</i>
   </separator>
   <separator name="electronic spin" >
    <i type="int" name="ISPIN">     1</i>
    <i type="logical" name="LNONCOLLINEAR"> F  </i>
    <v name="MAGMOM">      1.00000000      1.00000000      1.00000000      1.00000000</v>
    <i name="NUPDOWN">     -1.00000000</i>
    <i type="logical" name="LSORBIT"> F  </i>
    <v name="SAXIS">      0.00000000      0.00000000      1.00000000</v>
    <i type="logical" name="LSPIRAL"> F  </i>
    <v name="QSPIRAL">      0.00000000      0.00000000      0.00000000</v>
    <i type="logical" name="LZEROZ"> F  </i>
   </separator>
   <separator name="electronic exchange-correlation" >
    <i type="logical" name="LASPH"> F  </i>
    <i type="logical" name="LMETAGGA"> F  </i>
   </separator>
   <separator name="electronic convergence" >
    <i type="int" name="NELM">    60</i>
    <i type="int" name="NELMDL">     0</i>
    <i type="int" name="NELMIN">     2</i>
    <i name="ENINI">    350.00000000</i>
    <separator name="electronic convergence detail" >
     <i type="logical" name="LDIAG"> T  </i>
     <i type="logical" name="LSUBROT"> T  </i>
     <i name="WEIMIN">      0.00000000</i>
     <i name="EBREAK">      0.00000074</i>
     <i name="DEPER">      0.30000000</i>
     <i type="int" name="NRMM">     4</i>
     <i name="TIME">      0.40000000</i>
    </separator>
   </separator>
   <separator name="electronic mixer" >
    <i name="AMIX">      0.40000000</i>
    <i name="BMIX">      1.00000000</i>
    <i name="AMIN">      0.10000000</i>
    <i name="AMIX_MAG">      1.60000000</i>
    <i name="BMIX_MAG">      1.00000000</i>
    <separator name="electronic mixer details" >
     <i type="int" name="IMIX">     4</i>
     <i type="int" name="MAXMIX">   -45</i>
     <i name="WC">    100.00000000</i>
     <i type="int" name="INIMIX">     1</i>
     <i type="int" name="MIXPRE">     1</i>
     <i type="int" name="MREMOVE">     5</i>
    </separator>
   </separator>
   <separator name="electronic dipolcorrection" >
    <i type="logical" name="LDIPOL"> F  </i>
    <i type="logical" name="LMONO"> F  </i>
    <i type="int" name="IDIPOL">     0</i>
    <i name="EPSILON">      1.00000000</i>
    <v name="DIPOL">   -100.00000000   -100.00000000   -100.00000000</v>
    <i name="EFIELD">      0.00000000</i>
   </separator>
  </separator>
  <separator name="grids" >
   <i type="int" name="NGX">    54</i>
   <i type="int" name="NGY">    54</i>
   <i type="int" name="NGZ">    54</i>
   <i type="int" name="NGXF">    84</i>
   <i type="int" name="NGYF">    84</i>
   <i type="int" name="NGZF">    84</i>
   <i type="logical" name="ADDGRID"> F  </i>
  </separator>
  <separator name="ionic" >
   <i type="int" name="NSW">     0</i>
   <i type="int" name="IBRION">    -1</i>
   <i type="int" name="ISIF">     2</i>
   <i name="PSTRESS">      0.00000000</i>
   <i name="EDIFFG">      0.00100000</i>
   <i type="int" name="NFREE">     0</i>
   <i name="POTIM">      0.50000000</i>
   <i name="SMASS">     -3.00000000</i>
   <i name="SCALEE">      1.00000000</i>
  </separator>
  <separator name="ionic md" >
   <i name="TEBEG">      0.00010000</i>
   <i name="TEEND">      0.00010000</i>
   <i type="int" name="NBLOCK">     1</i>
   <i type="int" name="KBLOCK">     1</i>
   <i type="int" name="NPACO">   256</i>
   <i name="APACO">     16.00000000</i>
  </separator>
  <separator name="symmetry" >
   <i type="int" name="ISYM">     2</i>
   <i name="SYMPREC">      0.00001000</i>
  </separator>
  <separator name="dos" >
   <i type="logical" name="LORBIT"> F  </i>
   <v name="RWIGS">     -1.00000000     -1.00000000</v>
   <i type="int" name="NEDOS">   301</i>
   <i name="EMIN">     10.00000000</i>
   <i name="EMAX">    -10.00000000</i>
   <i name="EFERMI">      0.00000000</i>
  </separator>
  <separator name="writing" >
   <i type="int" name="NWRITE">     2</i>
   <i type="logical" name="LWAVE"> T  </i>
   <i type="logical" name="LCHARG"> T  </i>
   <i type="logical" name="LPARD"> F  </i>
   <i type="logical" name="LVTOT"> F  </i>
   <i type="logical" name="LVHAR"> F  </i>
   <i type="logical" name="LELF"> F  </i>
   <i type="logical" name="LOPTICS"> F  </i>
   <v name="STM">      0.00000000      0.00000000      0.00000000      0.00000000      0.00000000      0.00000000      0.00000000</v>
  </separator>
  <separator name="performance" >
   <i type="int" name="NPAR">     1</i>
   <i type="int" name="NSIM">     4</i>
   <i type="int" name="NBLK">    -1</i>
   <i type="logical" name="LPLANE"> T  </i>
   <i type="logical" name="LSCALAPACK"> F  </i>
   <i type="logical" name="LSCAAWARE"> F  </i>
   <i type="logical" name="LSCALU"> F  </i>
   <i type="logical" name="LASYNC"> F  </i>
   <i type="logical" name="LORBITALREAL"> F  </i>
  </separator>
  <separator name="miscellaneous" >
   <i type="int" name="IDIOT">     3</i>
   <i type="logical" name="LMUSIC"> F  </i>
   <v name="POMASS">     63.54600000    106.42000000</v>
   <v name="DARWINR">      0.00000000      0.00000000</v>
   <v name="DARWINV">      1.00000000      1.00000000</v>
   <i type="logical" name="LCORR"> T  </i>
  </separator>
  <i type="logical" name="GGA_COMPAT"> T  </i>
  <i type="logical" name="LBERRY"> F  </i>
  <i type="int" name="ICORELEVEL">     0</i>
  <i type="logical" name="LDAU"> F  </i>
  <i type="int" name="I_CONSTRAINED_M">     0</i>
  <separator name="electronic exchange-correlation" >
   <i type="string" name="GGA">--</i>
   <i type="int" name="VOSKOWN">     0</i>
   <i type="logical" name="LHFCALC"> F  </i>
   <i type="string" name="PRECFOCK"></i>
   <i type="logical" name="LHFONE"> F  </i>
   <i type="logical" name="LRHFCALC"> F  </i>
   <i type="logical" name="LTHOMAS"> F  </i>
   <i type="logical" name="LMODELHF"> F  </i>
   <i name="ENCUT4O">     -1.00000000</i>
   <i type="int" name="EXXOEP">     0</i>
   <i type="int" name="FOURORBIT">     0</i>
   <i name="AEXX">      0.00000000</i>
   <i name="HFALPHA">      0.00000000</i>
   <i name="ALDAX">      1.00000000</i>
   <i name="AGGAX">      1.00000000</i>
   <i name="ALDAC">      1.00000000</i>
   <i name="AGGAC">      1.00000000</i>
   <i type="int" name="NKREDX">     1</i>
   <i type="int" name="NKREDY">     1</i>
   <i type="int" name="NKREDZ">     1</i>
   <i type="logical" name="SHIFTRED"> F  </i>
   <i type="logical" name="ODDONLY"> F  </i>
   <i type="logical" name="EVENONLY"> F  </i>
   <i type="int" name="LMAXFOCK">     0</i>
   <i type="int" name="NMAXFOCKAE">     0</i>
   <i type="logical" name="LFOCKAEDFT"> F  </i>
   <i name="HFSCREEN">      0.00000000</i>
   <i name="HFSCREENC">      0.00000000</i>
  </separator>
  <separator name="vdW DFT" >
   <i type="logical" name="LUSE_VDW"> F  </i>
   <i name="Zab_VDW">     -0.84910000</i>
   <i name="PARAM1">      0.12340000</i>
   <i name="PARAM2">      1.00000000</i>
   <i name="PARAM3">      0.00000000</i>
  </separator>
  <separator name="model GW" >
   <i type="int" name="MODEL_GW">     0</i>
   <i name="MODEL_EPS0">      7.83253094</i>
   <i name="MODEL_ALPHA">      1.00000000</i>
  </separator>
  <separator name="linear response parameters" >
   <i type="logical" name="LEPSILON"> F  </i>
   <i type="logical" name="LRPA"> F  </i>
   <i type="logical" name="LNABLA"> F  </i>
   <i type="logical" name="LVEL"> F  </i>
   <i type="int" name="KINTER">     0</i>
   <i name="CSHIFT">      0.10000000</i>
   <i name="OMEGAMAX">     -1.00000000</i>
  </separator>
  <separator name="orbital magnetization" >
   <i type="logical" name="NUCIND"> F  </i>
   <v name="MAGPOS">      0.00000000      0.00000000      0.00000000</v>
   <i type="logical" name="LNICSALL"> T  </i>
   <i type="logical" name="ORBITALMAG"> F  </i>
   <i type="logical" name="LMAGBLOCH"> F  </i>
   <i type="logical" name="LCHIMAG"> F  </i>
   <i type="logical" name="LGAUGE"> T  </i>
   <i type="int" name="MAGATOM">     0</i>
   <v name="MAGDIPOL">      0.00000000      0.00000000      0.00000000</v>
   <v name="AVECCONST">      0.00000000      0.00000000      0.00000000</v>
  </separator>
  <separator name="response functions" >
   <i type="logical" name="LADDER"> F  </i>
   <i type="logical" name="LHARTREE"> T  </i>
   <i type="int" name="IBSE">     0</i>
   <i type="logical" name="LTCTE"> F  </i>
   <i type="logical" name="LTETE"> F  </i>
   <i type="logical" name="LFXCEPS"> F  </i>
   <i type="logical" name="L2ORDER"> F  </i>
   <i type="logical" name="LUSEW"> F  </i>
   <i name="ENCUTGW">     -2.00000000</i>
   <i name="ENCUTGWSOFT">     -2.00000000</i>
   <i name="ENCUTLF">     -1.00000000</i>
   <i type="int" name="LMAXMP2">    -1</i>
   <i name="SCISSOR">      0.00000000</i>
   <i type="int" name="NOMEGA">     0</i>
   <i type="int" name="NOMEGAR">     0</i>
   <i type="int" name="NBANDSGW">    -1</i>
   <i type="int" name="NBANDSO">    -1</i>
   <i type="int" name="NBANDSV">    -1</i>
   <i name="OPTEMAX">      0.00000000</i>
   <i type="int" name="NELM">     1</i>
   <i type="int" name="DIM">     3</i>
   <i type="int" name="ANTIRES">     0</i>
   <i name="OMEGAMAX">    -30.00000000</i>
   <i name="OMEGATL">   -200.00000000</i>
   <i type="int" name="OMEGAGRID">     0</i>
   <i name="CSHIFT">     -0.10000000</i>
   <i type="logical" name="SELFENERGY"> F  </i>
   <i type="logical" name="LSPECTRAL"> F  </i>
   <i type="logical" name="ODDONLYGW"> F  </i>
   <i type="logical" name="EVENONLYGW"> F  </i>
   <i type="int" name="NKREDLFX">     1</i>
   <i type="int" name="NKREDLFY">     1</i>
   <i type="int" name="NKREDLFZ">     1</i>
   <i type="int" name="MAXMEM">  1800</i>
   <i type="int" name="TELESCOPE">     0</i>
  </separator>
 </parameters>
 <atominfo>
  <atoms>       4 </atoms>
  <types>       2 </types>
  <array name="atoms" >
   <dimension dim="1">ion</dimension>
   <field type="string">element</field>
   <field type="int">atomtype</field>
   <set>
    <rc><c>Cu</c><c>   1</c></rc>
    <rc><c>Cu</c><c>   1</c></rc>
    <rc><c>Cu</c><c>   1</c></rc>
    <rc><c>Pd</c><c>   2</c></rc>
   </set>
  </array>
  <array name="atomtypes" >
   <dimension dim="1">type</dimension>
   <field type="int">atomspertype</field>
   <field type="string">element</field>
   <field>mass</field>
   <field>valence</field>
   <field type="string">pseudopotential</field>
   <set>
    <rc><c>   3</c><c>Cu</c><c>     63.54600000</c><c>     11.00000000</c><c> PAW_PBE Cu 05Jan2001                   </c></rc>
    <rc><c>   1</c><c>Pd</c><c>    106.42000000</c><c>     10.00000000</c><c>  PAW_PBE Pd 05Jan2001                  </c></rc>
   </set>
  </array>
 </atominfo>
 <structure name="initialpos" >
  <crystal>
   <varray name="basis" >
    <v>      -5.46362047       3.56547010       5.46362047 </v>
    <v>      -3.56547010       5.46362047       5.46362047 </v>
    <v>      -5.46362047       5.46362047       3.56547010 </v>
   </varray>
   <i name="volume">     52.21687292 </i>
   <varray name="rec_basis" >
    <v>      -0.19860962      -0.32821903       0.19860962 </v>
    <v>       0.32821903       0.19860962       0.19860962 </v>
    <v>      -0.19860962       0.19860962      -0.32821903 </v>
   </varray>
  </crystal>
  <varray name="positions" >
   <v>       0.25334331       0.25334331       0.25334331 </v>
   <v>       0.00000000       0.00000000       0.00000000 </v>
   <v>       0.74665669       0.74665669       0.74665669 </v>
   <v>       0.50000000       0.50000000       0.50000000 </v>
  </varray>
 </structure>
 <calculation>
  <scstep>
   <time name="dav">  218.57  292.80</time>
   <time name="total">  237.40  316.62</time>
   <energy>
    <i name="alphaZ">    399.05500342 </i>
    <i name="ewald">  -4056.31719133 </i>
    <i name="hartreedc">  -1111.58788245 </i>
    <i name="XCdc">     98.90229269 </i>
    <i name="pawpsdc">   4197.04898843 </i>
    <i name="pawaedc">  -4571.86802310 </i>
    <i name="eentropy">      0.00000000 </i>
    <i name="bandstr">     45.68547156 </i>
    <i name="atom">   4982.58872981 </i>
    <i name="e_fr_energy">    -16.49261096 </i>
    <i name="e_wo_entrp">    -16.49261096 </i>
    <i name="e_0_energy">    -16.49261096 </i>
   </energy>
  </scstep>
  <scstep>
   <time name="dav">  221.66  293.19</time>
   <time name="total">  241.08  321.73</time>
   <energy>
    <i name="e_fr_energy">    -16.50499056 </i>
    <i name="e_wo_entrp">    -16.50499056 </i>
    <i name="e_0_energy">    -16.50499056 </i>
   </energy>
  </scstep>
  <scstep>
   <time name="dav">  223.22  297.53</time>
   <time name="total">  243.39  324.84</time>
   <energy>
    <i name="e_fr_energy">    -16.48925155 </i>
    <i name="e_wo_entrp">    -16.48925155 </i>
    <i name="e_0_energy">    -16.48925155 </i>
   </energy>
  </scstep>
  <scstep>
   <time name="dav">  236.84  315.40</time>
   <time name="total">  256.20  341.67</time>
   <energy>
    <i name="e_fr_energy">    -16.48985986 </i>
    <i name="e_wo_entrp">    -16.48985986 </i>
    <i name="e_0_energy">    -16.48985986 </i>
   </energy>
  </scstep>
  <scstep>
   <time name="dav">  183.36  248.43</time>
   <time name="total">  201.85  273.02</time>
   <energy>
    <i name="e_fr_energy">    -16.48973695 </i>
    <i name="e_wo_entrp">    -16.48973695 </i>
    <i name="e_0_energy">    -16.48973695 </i>
   </energy>
  </scstep>
  <scstep>
   <time name="dav">  143.50  183.67</time>
   <time name="total">  164.13  212.31</time>
   <energy>
    <i name="e_fr_energy">    -16.48985835 </i>
    <i name="e_wo_entrp">    -16.48985835 </i>
    <i name="e_0_energy">    -16.48985835 </i>
   </energy>
  </scstep>
  <scstep>
   <time name="dav">  130.05  171.00</time>
   <time name="total">  131.12  172.16</time>
   <energy>
    <i name="alphaZ">    399.05500342 </i>
    <i name="ewald">  -4056.31719133 </i>
    <i name="hartreedc">  -1110.19990073 </i>
    <i name="XCdc">     98.83668597 </i>
    <i name="pawpsdc">   4196.00096060 </i>
    <i name="pawaedc">  -4569.91878622 </i>
    <i name="eentropy">      0.00000000 </i>
    <i name="bandstr">     43.46467891 </i>
    <i name="atom">   4982.58872981 </i>
    <i name="e_fr_energy">    -16.48981957 </i>
    <i name="e_wo_entrp">    -16.48981957 </i>
    <i name="e_0_energy">    -16.48981957 </i>
   </energy>
  </scstep>
  <parameters_embedded>
   <separator name="dft+d2" >
    <i type="logical" name="LVDW"> F  </i>
   </separator>
  </parameters_embedded>
  <structure>
   <crystal>
    <varray name="basis" >
     <v>      -5.46362047       3.56547010       5.46362047 </v>
     <v>      -3.56547010       5.46362047       5.46362047 </v>
     <v>      -5.46362047       5.46362047       3.56547010 </v>
    </varray>
    <i name="volume">     52.21687292 </i>
    <varray name="rec_basis" >
     <v>      -0.19860962      -0.32821903       0.19860962 </v>
     <v>       0.32821903       0.19860962       0.19860962 </v>
     <v>      -0.19860962       0.19860962      -0.32821903 </v>
    </varray>
   </crystal>
   <varray name="positions" >
    <v>       0.25334331       0.25334331       0.25334331 </v>
    <v>       0.00000000       0.00000000       0.00000000 </v>
    <v>       0.74665669       0.74665669       0.74665669 </v>
    <v>       0.50000000       0.50000000       0.50000000 </v>
   </varray>
  </structure>
  <varray name="forces" >
   <v>       0.00765628      -0.00765628      -0.00765628 </v>
   <v>       0.00000000       0.00000000       0.00000000 </v>
   <v>      -0.00765628       0.00765628       0.00765628 </v>
   <v>       0.00000000       0.00000000       0.00000000 </v>
  </varray>
  <varray name="stress" >
   <v>      -4.01050806      -1.88427388      -1.88427388 </v>
   <v>      -1.88427388      -4.01050806       1.88427388 </v>
   <v>      -1.88427388       1.88427388      -4.01050806 </v>
  </varray>
  <energy>
   <i name="e_fr_energy">    -16.48981957 </i>
   <i name="e_wo_entrp">    -16.48981957 </i>
   <i name="e_0_energy">      0.00000000 </i>
  </energy>
  <time name="totalsc"> 1507.50 2007.29</time>
  <eigenvalues>
   <array>
    <dimension dim="1">band</dimension>
    <dimension dim="2">kpoint</dimension>
    <dimension dim="3">spin</dimension>
    <field>eigene</field>
    <field>occ</field>
    <set>
     <set comment="spin 1">
      <set comment="kpoint 1">
       <r>   -4.7453    1.0000 </r>
       <r>   -2.6017    1.0000 </r>
       <r>   -2.4172    1.0000 </r>
       <r>   -1.1333    1.0000 </r>
       <r>    0.6694    1.0000 </r>
       <r>    0.7750    1.0000 </r>
       <r>    0.7750    1.0000 </r>
       <r>    0.9630    1.0000 </r>
       <r>    0.9630    1.0000 </r>
       <r>    1.0040    1.0000 </r>
       <r>    1.0661    1.0000 </r>
       <r>    1.0661    1.0000 </r>
       <r>    1.2189    1.0000 </r>
       <r>    1.2543    1.0000 </r>
       <r>    1.2543    1.0000 </r>
       <r>    1.7798    1.0000 </r>
       <r>    1.7798    1.0000 </r>
       <r>    1.8223    1.0000 </r>
       <r>    1.8223    1.0000 </r>
       <r>    2.1056    1.0000 </r>
       <r>    2.1056    1.0000 </r>
       <r>    3.0087    1.0000 </r>
       <r>    3.0087    1.0000 </r>
       <r>    3.9044    0.0108 </r>
       <r>    8.9941    0.0000 </r>
       <r>   17.1218    0.0000 </r>
       <r>   18.3778    0.0000 </r>
       <r>   22.3982    0.0000 </r>
       <r>   23.5444    0.0000 </r>
       <r>   23.5444    0.0000 </r>
       <r>   24.2488    0.0000 </r>
       <r>   24.7574    0.0000 </r>
       <r>   24.7605    0.0000 </r>
       <r>   25.2913    0.0000 </r>
      </set>
      <set comment="kpoint 2">
       <r>   -4.2843    1.0000 </r>
       <r>   -2.3039    1.0000 </r>
       <r>   -1.8966    1.0000 </r>
       <r>   -0.8541    1.0000 </r>
       <r>    0.4822    1.0000 </r>
       <r>    0.5366    1.0000 </r>
       <r>    0.6995    1.0000 </r>
       <r>    0.8323    1.0000 </r>
       <r>    0.9351    1.0000 </r>
       <r>    1.0980    1.0000 </r>
       <r>    1.1235    1.0000 </r>
       <r>    1.2152    1.0000 </r>
       <r>    1.2903    1.0000 </r>
       <r>    1.3031    1.0000 </r>
       <r>    1.3894    1.0000 </r>
       <r>    1.6273    1.0000 </r>
       <r>    1.7086    1.0000 </r>
       <r>    1.7662    1.0000 </r>
       <r>    1.8904    1.0000 </r>
       <r>    1.9646    1.0000 </r>
       <r>    2.1717    1.0000 </r>
       <r>    2.6403    1.0000 </r>
       <r>    2.9693    1.0000 </r>
       <r>    5.3579   -0.0022 </r>
       <r>    9.1584    0.0000 </r>
       <r>   17.3934    0.0000 </r>
       <r>   18.7491    0.0000 </r>
       <r>   18.8303    0.0000 </r>
       <r>   20.1554    0.0000 </r>
       <r>   21.1225    0.0000 </r>
       <r>   22.2947    0.0000 </r>
       <r>   22.4986    0.0000 </r>
       <r>   22.9634    0.0000 </r>
       <r>   23.4242    0.0000 </r>
      </set>
      <set comment="kpoint 3">
       <r>   -3.0092    1.0000 </r>
       <r>   -1.5513    1.0000 </r>
       <r>   -0.9977    1.0000 </r>
       <r>   -0.4401    1.0000 </r>
       <r>    0.1366    1.0000 </r>
       <r>    0.2756    1.0000 </r>
       <r>    0.4992    1.0000 </r>
       <r>    0.6435    1.0000 </r>
       <r>    0.9887    1.0000 </r>
       <r>    1.0310    1.0000 </r>
       <r>    1.1367    1.0000 </r>
       <r>    1.3249    1.0000 </r>
       <r>    1.3530    1.0000 </r>
       <r>    1.4388    1.0000 </r>
       <r>    1.5432    1.0000 </r>
       <r>    1.7278    1.0000 </r>
       <r>    1.8311    1.0000 </r>
       <r>    1.9167    1.0000 </r>
       <r>    2.1024    1.0000 </r>
       <r>    2.1142    1.0000 </r>
       <r>    2.4680    1.0000 </r>
       <r>    2.8772    1.0000 </r>
       <r>    3.3665    0.9040 </r>
       <r>    7.3408    0.0000 </r>
       <r>    9.8433    0.0000 </r>
       <r>   13.4706    0.0000 </r>
       <r>   15.1551    0.0000 </r>
       <r>   17.5805    0.0000 </r>
       <r>   18.2644    0.0000 </r>
       <r>   18.5674    0.0000 </r>
       <r>   19.7827    0.0000 </r>
       <r>   19.9023    0.0000 </r>
       <r>   20.7081    0.0000 </r>
       <r>   22.0091    0.0000 </r>
      </set>
      <set comment="kpoint 4">
       <r>   -1.5908    1.0000 </r>
       <r>   -1.2016    1.0000 </r>
       <r>   -0.9692    1.0000 </r>
       <r>   -0.3986    1.0000 </r>
       <r>   -0.2025    1.0000 </r>
       <r>    0.0164    1.0000 </r>
       <r>    0.7718    1.0000 </r>
       <r>    0.8932    1.0000 </r>
       <r>    0.9962    1.0000 </r>
       <r>    1.1616    1.0000 </r>
       <r>    1.2148    1.0000 </r>
       <r>    1.2193    1.0000 </r>
       <r>    1.5440    1.0000 </r>
       <r>    1.9269    1.0000 </r>
       <r>    2.0753    1.0000 </r>
       <r>    2.1270    1.0000 </r>
       <r>    2.1877    1.0000 </r>
       <r>    2.2295    1.0000 </r>
       <r>    2.4387    1.0000 </r>
       <r>    2.7594    1.0114 </r>
       <r>    3.2216    1.0720 </r>
       <r>    3.4291    0.7040 </r>
       <r>    4.6515   -0.0452 </r>
       <r>    7.9595    0.0000 </r>
       <r>    9.3819    0.0000 </r>
       <r>   11.6405    0.0000 </r>
       <r>   11.7258    0.0000 </r>
       <r>   13.0620    0.0000 </r>
       <r>   16.7130    0.0000 </r>
       <r>   16.8587    0.0000 </r>
       <r>   18.0017    0.0000 </r>
       <r>   18.4789    0.0000 </r>
       <r>   19.7012    0.0000 </r>
       <r>   21.0416    0.0000 </r>
      </set>
      <set comment="kpoint 5">
       <r>   -1.5192    1.0000 </r>
       <r>   -1.1734    1.0000 </r>
       <r>   -0.6527    1.0000 </r>
       <r>   -0.4713    1.0000 </r>
       <r>   -0.3114    1.0000 </r>
       <r>   -0.0849    1.0000 </r>
       <r>    0.7685    1.0000 </r>
       <r>    0.9625    1.0000 </r>
       <r>    1.0488    1.0000 </r>
       <r>    1.1517    1.0000 </r>
       <r>    1.3222    1.0000 </r>
       <r>    1.5252    1.0000 </r>
       <r>    1.9342    1.0000 </r>
       <r>    2.0980    1.0000 </r>
       <r>    2.1494    1.0000 </r>
       <r>    2.1708    1.0000 </r>
       <r>    2.2806    1.0000 </r>
       <r>    2.3259    1.0000 </r>
       <r>    2.6827    1.0000 </r>
       <r>    3.9292    0.9057 </r>
       <r>    4.2415   -0.0862 </r>
       <r>    4.2851    0.0190 </r>
       <r>    5.6990    0.0000 </r>
       <r>    5.9095    0.0000 </r>
       <r>    7.9992    0.0000 </r>
       <r>    9.7651    0.0000 </r>
       <r>   12.6074    0.0000 </r>
       <r>   14.0878    0.0000 </r>
       <r>   14.2831    0.0000 </r>
       <r>   15.4381    0.0000 </r>
       <r>   16.2523    0.0000 </r>
       <r>   17.2679    0.0000 </r>
       <r>   20.6833    0.0000 </r>
       <r>   21.0768    0.0000 </r>
      </set>
      <set comment="kpoint 6">
       <r>   -4.2732    1.0000 </r>
       <r>   -2.4090    1.0000 </r>
       <r>   -1.8041    1.0000 </r>
       <r>   -0.8469    1.0000 </r>
       <r>    0.4835    1.0000 </r>
       <r>    0.5496    1.0000 </r>
       <r>    0.6994    1.0000 </r>
       <r>    0.8283    1.0000 </r>
       <r>    0.9536    1.0000 </r>
       <r>    1.0923    1.0000 </r>
       <r>    1.0939    1.0000 </r>
       <r>    1.2099    1.0000 </r>
       <r>    1.2913    1.0000 </r>
       <r>    1.3114    1.0000 </r>
       <r>    1.3842    1.0000 </r>
       <r>    1.5666    1.0000 </r>
       <r>    1.7332    1.0000 </r>
       <r>    1.7647    1.0000 </r>
       <r>    1.9316    1.0000 </r>
       <r>    2.0725    1.0000 </r>
       <r>    2.1983    1.0000 </r>
       <r>    2.5242    1.0000 </r>
       <r>    2.9532    1.0000 </r>
       <r>    5.2948   -0.0023 </r>
       <r>    9.2743    0.0000 </r>
       <r>   16.9860    0.0000 </r>
       <r>   18.7229    0.0000 </r>
       <r>   19.3019    0.0000 </r>
       <r>   20.0742    0.0000 </r>
       <r>   21.0837    0.0000 </r>
       <r>   22.6451    0.0000 </r>
       <r>   22.6467    0.0000 </r>
       <r>   22.8018    0.0000 </r>
       <r>   23.5170    0.0000 </r>
      </set>
      <set comment="kpoint 7">
       <r>   -3.3882    1.0000 </r>
       <r>   -1.8470    1.0000 </r>
       <r>   -1.0133    1.0000 </r>
       <r>   -0.3912    1.0000 </r>
       <r>    0.1271    1.0000 </r>
       <r>    0.3293    1.0000 </r>
       <r>    0.4010    1.0000 </r>
       <r>    0.6149    1.0000 </r>
       <r>    0.9488    1.0000 </r>
       <r>    1.0213    1.0000 </r>
       <r>    1.1329    1.0000 </r>
       <r>    1.1666    1.0000 </r>
       <r>    1.3821    1.0000 </r>
       <r>    1.3974    1.0000 </r>
       <r>    1.5730    1.0000 </r>
       <r>    1.6763    1.0000 </r>
       <r>    1.7248    1.0000 </r>
       <r>    1.8006    1.0000 </r>
       <r>    1.8649    1.0000 </r>
       <r>    2.3094    1.0000 </r>
       <r>    2.4530    1.0000 </r>
       <r>    2.8052    1.0000 </r>
       <r>    3.1266    1.0404 </r>
       <r>    6.6451    0.0000 </r>
       <r>    9.8771    0.0000 </r>
       <r>   16.1902    0.0000 </r>
       <r>   16.3091    0.0000 </r>
       <r>   17.2096    0.0000 </r>
       <r>   17.7966    0.0000 </r>
       <r>   17.9660    0.0000 </r>
       <r>   19.8665    0.0000 </r>
       <r>   20.6801    0.0000 </r>
       <r>   21.0032    0.0000 </r>
       <r>   22.4596    0.0000 </r>
      </set>
      <set comment="kpoint 8">
       <r>   -1.9210    1.0000 </r>
       <r>   -1.1026    1.0000 </r>
       <r>   -0.6303    1.0000 </r>
       <r>   -0.2992    1.0000 </r>
       <r>    0.0026    1.0000 </r>
       <r>    0.1898    1.0000 </r>
       <r>    0.4299    1.0000 </r>
       <r>    0.6216    1.0000 </r>
       <r>    0.8138    1.0000 </r>
       <r>    0.9557    1.0000 </r>
       <r>    1.0189    1.0000 </r>
       <r>    1.2653    1.0000 </r>
       <r>    1.3863    1.0000 </r>
       <r>    1.5792    1.0000 </r>
       <r>    1.7892    1.0000 </r>
       <r>    1.8663    1.0000 </r>
       <r>    1.9028    1.0000 </r>
       <r>    2.1168    1.0000 </r>
       <r>    2.2881    1.0000 </r>
       <r>    2.5542    1.0000 </r>
       <r>    2.7913    1.0308 </r>
       <r>    3.5387    0.7496 </r>
       <r>    4.4442   -0.0194 </r>
       <r>    8.1075    0.0000 </r>
       <r>   11.2685    0.0000 </r>
       <r>   11.4260    0.0000 </r>
       <r>   13.3840    0.0000 </r>
       <r>   14.5328    0.0000 </r>
       <r>   15.2382    0.0000 </r>
       <r>   15.8112    0.0000 </r>
       <r>   18.3763    0.0000 </r>
       <r>   19.0818    0.0000 </r>
       <r>   19.7157    0.0000 </r>
       <r>   20.5819    0.0000 </r>
      </set>
      <set comment="kpoint 9">
       <r>   -1.1800    1.0000 </r>
       <r>   -0.9698    1.0000 </r>
       <r>   -0.5643    1.0000 </r>
       <r>   -0.3578    1.0000 </r>
       <r>   -0.1493    1.0000 </r>
       <r>    0.0222    1.0000 </r>
       <r>    0.5518    1.0000 </r>
       <r>    0.7875    1.0000 </r>
       <r>    0.9762    1.0000 </r>
       <r>    1.2063    1.0000 </r>
       <r>    1.2890    1.0000 </r>
       <r>    1.4234    1.0000 </r>
       <r>    1.4538    1.0000 </r>
       <r>    1.5817    1.0000 </r>
       <r>    2.0232    1.0000 </r>
       <r>    2.1475    1.0000 </r>
       <r>    2.2585    1.0000 </r>
       <r>    2.5557    1.0000 </r>
       <r>    2.6354    1.0000 </r>
       <r>    2.8896    1.0097 </r>
       <r>    3.7091    0.6662 </r>
       <r>    5.1610   -0.0793 </r>
       <r>    5.9724    0.0000 </r>
       <r>    7.5438    0.0000 </r>
       <r>    8.2773    0.0000 </r>
       <r>   10.7490    0.0000 </r>
       <r>   12.1421    0.0000 </r>
       <r>   13.2881    0.0000 </r>
       <r>   14.1877    0.0000 </r>
       <r>   14.7331    0.0000 </r>
       <r>   15.6435    0.0000 </r>
       <r>   16.8048    0.0000 </r>
       <r>   18.5935    0.0000 </r>
       <r>   19.6068    0.0000 </r>
      </set>
      <set comment="kpoint 10">
       <r>   -1.1600    1.0000 </r>
       <r>   -0.9736    1.0000 </r>
       <r>   -0.5969    1.0000 </r>
       <r>   -0.3090    1.0000 </r>
       <r>   -0.2012    1.0000 </r>
       <r>    0.0371    1.0000 </r>
       <r>    0.6024    1.0000 </r>
       <r>    0.7874    1.0000 </r>
       <r>    0.8756    1.0000 </r>
       <r>    1.2329    1.0000 </r>
       <r>    1.2424    1.0000 </r>
       <r>    1.3884    1.0000 </r>
       <r>    1.4224    1.0000 </r>
       <r>    1.7205    1.0000 </r>
       <r>    1.9840    1.0000 </r>
       <r>    2.1318    1.0000 </r>
       <r>    2.2883    1.0000 </r>
       <r>    2.5647    1.0000 </r>
       <r>    2.6366    1.0000 </r>
       <r>    2.9153    1.0091 </r>
       <r>    3.8676    0.4126 </r>
       <r>    5.1105   -0.0751 </r>
       <r>    5.7250    0.0000 </r>
       <r>    7.3958    0.0000 </r>
       <r>    8.4580    0.0000 </r>
       <r>   11.2727    0.0000 </r>
       <r>   12.5207    0.0000 </r>
       <r>   12.8804    0.0000 </r>
       <r>   13.6328    0.0000 </r>
       <r>   14.7399    0.0000 </r>
       <r>   14.9853    0.0000 </r>
       <r>   17.4990    0.0000 </r>
       <r>   18.4593    0.0000 </r>
       <r>   19.8036    0.0000 </r>
      </set>
      <set comment="kpoint 11">
       <r>   -1.9156    1.0000 </r>
       <r>   -1.0804    1.0000 </r>
       <r>   -0.7046    1.0000 </r>
       <r>   -0.2789    1.0000 </r>
       <r>   -0.0126    1.0000 </r>
       <r>    0.1972    1.0000 </r>
       <r>    0.4876    1.0000 </r>
       <r>    0.5673    1.0000 </r>
       <r>    0.8624    1.0000 </r>
       <r>    0.9392    1.0000 </r>
       <r>    0.9991    1.0000 </r>
       <r>    1.3469    1.0000 </r>
       <r>    1.3770    1.0000 </r>
       <r>    1.5237    1.0000 </r>
       <r>    1.7476    1.0000 </r>
       <r>    1.8362    1.0000 </r>
       <r>    1.9500    1.0000 </r>
       <r>    2.1421    1.0000 </r>
       <r>    2.2686    1.0000 </r>
       <r>    2.5990    1.0000 </r>
       <r>    3.0230    1.0802 </r>
       <r>    3.5315    0.7599 </r>
       <r>    3.9826    0.2347 </r>
       <r>    8.9393    0.0000 </r>
       <r>   10.3992    0.0000 </r>
       <r>   11.4937    0.0000 </r>
       <r>   13.1622    0.0000 </r>
       <r>   14.4767    0.0000 </r>
       <r>   15.6815    0.0000 </r>
       <r>   15.9163    0.0000 </r>
       <r>   18.4493    0.0000 </r>
       <r>   19.1288    0.0000 </r>
       <r>   19.7483    0.0000 </r>
       <r>   20.1297    0.0000 </r>
      </set>
      <set comment="kpoint 12">
       <r>   -3.4147    1.0000 </r>
       <r>   -1.6580    1.0000 </r>
       <r>   -1.1919    1.0000 </r>
       <r>   -0.3920    1.0000 </r>
       <r>    0.1236    1.0000 </r>
       <r>    0.3132    1.0000 </r>
       <r>    0.3910    1.0000 </r>
       <r>    0.6191    1.0000 </r>
       <r>    0.9941    1.0000 </r>
       <r>    1.0157    1.0000 </r>
       <r>    1.1293    1.0000 </r>
       <r>    1.1713    1.0000 </r>
       <r>    1.3719    1.0000 </r>
       <r>    1.3913    1.0000 </r>
       <r>    1.6364    1.0000 </r>
       <r>    1.6882    1.0000 </r>
       <r>    1.7415    1.0000 </r>
       <r>    1.7641    1.0000 </r>
       <r>    1.7973    1.0000 </r>
       <r>    2.3341    1.0000 </r>
       <r>    2.5203    1.0000 </r>
       <r>    2.8409    1.0000 </r>
       <r>    2.9463    1.0768 </r>
       <r>    7.0027    0.0000 </r>
       <r>    9.4382    0.0000 </r>
       <r>   16.2703    0.0000 </r>
       <r>   16.2776    0.0000 </r>
       <r>   17.6874    0.0000 </r>
       <r>   17.6952    0.0000 </r>
       <r>   18.5807    0.0000 </r>
       <r>   19.1287    0.0000 </r>
       <r>   20.6100    0.0000 </r>
       <r>   20.7458    0.0000 </r>
       <r>   22.9527    0.0000 </r>
      </set>
      <set comment="kpoint 13">
       <r>   -2.9589    1.0000 </r>
       <r>   -1.7081    1.0000 </r>
       <r>   -0.9934    1.0000 </r>
       <r>   -0.4001    1.0000 </r>
       <r>    0.1197    1.0000 </r>
       <r>    0.3601    1.0000 </r>
       <r>    0.5147    1.0000 </r>
       <r>    0.6153    1.0000 </r>
       <r>    1.0332    1.0000 </r>
       <r>    1.0787    1.0000 </r>
       <r>    1.1610    1.0000 </r>
       <r>    1.2989    1.0000 </r>
       <r>    1.3077    1.0000 </r>
       <r>    1.3389    1.0000 </r>
       <r>    1.4741    1.0000 </r>
       <r>    1.7480    1.0000 </r>
       <r>    1.8421    1.0000 </r>
       <r>    1.8659    1.0000 </r>
       <r>    2.1867    1.0000 </r>
       <r>    2.4477    1.0000 </r>
       <r>    2.6724    1.0000 </r>
       <r>    2.8607    1.0000 </r>
       <r>    2.9300    1.1179 </r>
       <r>    7.0107    0.0000 </r>
       <r>   10.3728    0.0000 </r>
       <r>   13.6077    0.0000 </r>
       <r>   14.8826    0.0000 </r>
       <r>   17.0829    0.0000 </r>
       <r>   18.3529    0.0000 </r>
       <r>   18.3770    0.0000 </r>
       <r>   19.6694    0.0000 </r>
       <r>   20.5586    0.0000 </r>
       <r>   21.1234    0.0000 </r>
       <r>   22.0285    0.0000 </r>
      </set>
      <set comment="kpoint 14">
       <r>   -1.8468    1.0000 </r>
       <r>   -1.2090    1.0000 </r>
       <r>   -0.6936    1.0000 </r>
       <r>   -0.3227    1.0000 </r>
       <r>    0.1051    1.0000 </r>
       <r>    0.2172    1.0000 </r>
       <r>    0.4483    1.0000 </r>
       <r>    0.6224    1.0000 </r>
       <r>    0.7408    1.0000 </r>
       <r>    0.8741    1.0000 </r>
       <r>    1.0171    1.0000 </r>
       <r>    1.3409    1.0000 </r>
       <r>    1.3721    1.0000 </r>
       <r>    1.5915    1.0000 </r>
       <r>    1.7116    1.0000 </r>
       <r>    1.8424    1.0000 </r>
       <r>    2.1293    1.0000 </r>
       <r>    2.1675    1.0000 </r>
       <r>    2.2540    1.0000 </r>
       <r>    2.5662    1.0000 </r>
       <r>    2.8907    1.0521 </r>
       <r>    3.4626    0.8085 </r>
       <r>    4.2735    0.0726 </r>
       <r>    8.1233    0.0000 </r>
       <r>   10.7590    0.0000 </r>
       <r>   12.2771    0.0000 </r>
       <r>   13.0184    0.0000 </r>
       <r>   14.2830    0.0000 </r>
       <r>   16.3595    0.0000 </r>
       <r>   16.4665    0.0000 </r>
       <r>   17.4831    0.0000 </r>
       <r>   17.7317    0.0000 </r>
       <r>   18.2340    0.0000 </r>
       <r>   22.2440    0.0000 </r>
      </set>
      <set comment="kpoint 15">
       <r>   -0.8708    1.0000 </r>
       <r>   -0.4947    1.0000 </r>
       <r>   -0.2937    1.0000 </r>
       <r>   -0.1917    1.0000 </r>
       <r>    0.0146    1.0000 </r>
       <r>    0.2178    1.0000 </r>
       <r>    0.3175    1.0000 </r>
       <r>    0.5228    1.0000 </r>
       <r>    0.6026    1.0000 </r>
       <r>    0.8218    1.0000 </r>
       <r>    0.8814    1.0000 </r>
       <r>    1.1547    1.0000 </r>
       <r>    1.6417    1.0000 </r>
       <r>    1.7163    1.0000 </r>
       <r>    1.7953    1.0000 </r>
       <r>    1.9842    1.0000 </r>
       <r>    2.0065    1.0000 </r>
       <r>    2.3740    1.0000 </r>
       <r>    2.4626    1.0000 </r>
       <r>    2.8047    1.0000 </r>
       <r>    3.7229    0.5829 </r>
       <r>    4.9945   -0.0633 </r>
       <r>    6.7754    0.0000 </r>
       <r>    9.3395    0.0000 </r>
       <r>    9.8343    0.0000 </r>
       <r>   10.0523    0.0000 </r>
       <r>   11.3335    0.0000 </r>
       <r>   12.4516    0.0000 </r>
       <r>   13.6307    0.0000 </r>
       <r>   14.4289    0.0000 </r>
       <r>   15.1623    0.0000 </r>
       <r>   16.3030    0.0000 </r>
       <r>   18.5093    0.0000 </r>
       <r>   18.9722    0.0000 </r>
      </set>
      <set comment="kpoint 16">
       <r>   -0.6380    1.0000 </r>
       <r>   -0.2941    1.0000 </r>
       <r>   -0.1731    1.0000 </r>
       <r>   -0.0628    1.0000 </r>
       <r>    0.0077    1.0000 </r>
       <r>    0.1623    1.0000 </r>
       <r>    0.3003    1.0000 </r>
       <r>    0.3458    1.0000 </r>
       <r>    0.7099    1.0000 </r>
       <r>    0.8943    1.0000 </r>
       <r>    0.9970    1.0000 </r>
       <r>    1.1487    1.0000 </r>
       <r>    1.6119    1.0000 </r>
       <r>    1.6989    1.0000 </r>
       <r>    1.8701    1.0000 </r>
       <r>    2.0636    1.0000 </r>
       <r>    2.2456    1.0000 </r>
       <r>    2.3230    1.0000 </r>
       <r>    2.4654    1.0000 </r>
       <r>    2.8937    1.0000 </r>
       <r>    5.8407   -0.1202 </r>
       <r>    6.0715    0.0000 </r>
       <r>    7.3287    0.0000 </r>
       <r>    8.0623    0.0000 </r>
       <r>    9.1695    0.0000 </r>
       <r>    9.5943    0.0000 </r>
       <r>   10.3631    0.0000 </r>
       <r>   11.0172    0.0000 </r>
       <r>   13.4415    0.0000 </r>
       <r>   14.4385    0.0000 </r>
       <r>   15.2511    0.0000 </r>
       <r>   15.6004    0.0000 </r>
       <r>   16.0783    0.0000 </r>
       <r>   17.5293    0.0000 </r>
      </set>
      <set comment="kpoint 17">
       <r>   -0.8141    1.0000 </r>
       <r>   -0.6084    1.0000 </r>
       <r>   -0.2787    1.0000 </r>
       <r>   -0.2013    1.0000 </r>
       <r>    0.0362    1.0000 </r>
       <r>    0.2431    1.0000 </r>
       <r>    0.3840    1.0000 </r>
       <r>    0.4545    1.0000 </r>
       <r>    0.6496    1.0000 </r>
       <r>    0.7200    1.0000 </r>
       <r>    1.0604    1.0000 </r>
       <r>    1.1427    1.0000 </r>
       <r>    1.6022    1.0000 </r>
       <r>    1.7196    1.0000 </r>
       <r>    1.7221    1.0000 </r>
       <r>    1.9057    1.0000 </r>
       <r>    1.9178    1.0000 </r>
       <r>    2.4307    1.0000 </r>
       <r>    2.4842    1.0000 </r>
       <r>    2.8374    1.0000 </r>
       <r>    3.9525    0.2764 </r>
       <r>    5.0694   -0.0678 </r>
       <r>    6.1568    0.0000 </r>
       <r>    9.6557    0.0000 </r>
       <r>    9.8574    0.0000 </r>
       <r>   10.8512    0.0000 </r>
       <r>   11.0665    0.0000 </r>
       <r>   12.7534    0.0000 </r>
       <r>   12.8312    0.0000 </r>
       <r>   14.2193    0.0000 </r>
       <r>   14.9091    0.0000 </r>
       <r>   16.6968    0.0000 </r>
       <r>   17.1441    0.0000 </r>
       <r>   20.1249    0.0000 </r>
      </set>
      <set comment="kpoint 18">
       <r>   -1.4277    1.0000 </r>
       <r>   -1.3678    1.0000 </r>
       <r>   -0.9970    1.0000 </r>
       <r>   -0.4839    1.0000 </r>
       <r>   -0.0053    1.0000 </r>
       <r>    0.0974    1.0000 </r>
       <r>    0.4679    1.0000 </r>
       <r>    0.9049    1.0000 </r>
       <r>    0.9057    1.0000 </r>
       <r>    1.0615    1.0000 </r>
       <r>    1.2036    1.0000 </r>
       <r>    1.4516    1.0000 </r>
       <r>    1.6177    1.0000 </r>
       <r>    1.7596    1.0000 </r>
       <r>    2.0453    1.0000 </r>
       <r>    2.1300    1.0000 </r>
       <r>    2.2131    1.0000 </r>
       <r>    2.2164    1.0000 </r>
       <r>    2.8301    1.0000 </r>
       <r>    2.9599    1.0000 </r>
       <r>    3.0584    1.1382 </r>
       <r>    3.4262    0.7387 </r>
       <r>    4.3883   -0.0009 </r>
       <r>    8.5843    0.0000 </r>
       <r>    8.6640    0.0000 </r>
       <r>   10.4589    0.0000 </r>
       <r>   13.3109    0.0000 </r>
       <r>   14.1896    0.0000 </r>
       <r>   15.2701    0.0000 </r>
       <r>   16.4507    0.0000 </r>
       <r>   17.2878    0.0000 </r>
       <r>   19.2561    0.0000 </r>
       <r>   20.6679    0.0000 </r>
       <r>   21.0621    0.0000 </r>
      </set>
      <set comment="kpoint 19">
       <r>   -1.2035    1.0000 </r>
       <r>   -0.9934    1.0000 </r>
       <r>   -0.5557    1.0000 </r>
       <r>   -0.2853    1.0000 </r>
       <r>    0.0448    1.0000 </r>
       <r>    0.0864    1.0000 </r>
       <r>    0.4708    1.0000 </r>
       <r>    0.6726    1.0000 </r>
       <r>    0.7400    1.0000 </r>
       <r>    0.7833    1.0000 </r>
       <r>    1.2903    1.0000 </r>
       <r>    1.5125    1.0000 </r>
       <r>    1.7101    1.0000 </r>
       <r>    1.8057    1.0000 </r>
       <r>    1.9784    1.0000 </r>
       <r>    2.2226    1.0000 </r>
       <r>    2.4337    1.0000 </r>
       <r>    2.4899    1.0000 </r>
       <r>    2.6058    1.0000 </r>
       <r>    2.8961    1.0000 </r>
       <r>    3.7604    0.6959 </r>
       <r>    4.7067   -0.0382 </r>
       <r>    6.4030    0.0000 </r>
       <r>    7.1278    0.0000 </r>
       <r>    8.8630    0.0000 </r>
       <r>   10.2375    0.0000 </r>
       <r>   12.4803    0.0000 </r>
       <r>   13.1257    0.0000 </r>
       <r>   13.5764    0.0000 </r>
       <r>   15.4976    0.0000 </r>
       <r>   15.6839    0.0000 </r>
       <r>   16.9837    0.0000 </r>
       <r>   17.9577    0.0000 </r>
       <r>   19.7141    0.0000 </r>
      </set>
      <set comment="kpoint 20">
       <r>   -0.6646    1.0000 </r>
       <r>   -0.3175    1.0000 </r>
       <r>   -0.1423    1.0000 </r>
       <r>    0.0537    1.0000 </r>
       <r>    0.0983    1.0000 </r>
       <r>    0.2097    1.0000 </r>
       <r>    0.2346    1.0000 </r>
       <r>    0.3829    1.0000 </r>
       <r>    0.4074    1.0000 </r>
       <r>    0.7232    1.0000 </r>
       <r>    0.9967    1.0000 </r>
       <r>    1.3956    1.0000 </r>
       <r>    1.6000    1.0000 </r>
       <r>    1.8060    1.0000 </r>
       <r>    1.8309    1.0000 </r>
       <r>    2.1699    1.0000 </r>
       <r>    2.1897    1.0000 </r>
       <r>    2.3699    1.0000 </r>
       <r>    2.3759    1.0000 </r>
       <r>    2.8673    1.0000 </r>
       <r>    5.7105   -0.2155 </r>
       <r>    6.3865    0.0000 </r>
       <r>    6.7846    0.0000 </r>
       <r>    8.5464    0.0000 </r>
       <r>    9.0879    0.0000 </r>
       <r>    9.1748    0.0000 </r>
       <r>   11.1027    0.0000 </r>
       <r>   12.0782    0.0000 </r>
       <r>   12.4514    0.0000 </r>
       <r>   13.1003    0.0000 </r>
       <r>   13.6416    0.0000 </r>
       <r>   17.8909    0.0000 </r>
       <r>   18.3788    0.0000 </r>
       <r>   18.5778    0.0000 </r>
      </set>
      <set comment="kpoint 21">
       <r>   -1.5486    1.0000 </r>
       <r>   -1.2379    1.0000 </r>
       <r>   -0.6680    1.0000 </r>
       <r>   -0.3071    1.0000 </r>
       <r>   -0.0692    1.0000 </r>
       <r>   -0.0012    1.0000 </r>
       <r>    0.4343    1.0000 </r>
       <r>    0.8179    1.0000 </r>
       <r>    0.9290    1.0000 </r>
       <r>    1.1294    1.0000 </r>
       <r>    1.1827    1.0000 </r>
       <r>    1.5978    1.0000 </r>
       <r>    1.7097    1.0000 </r>
       <r>    2.1369    1.0000 </r>
       <r>    2.2871    1.0000 </r>
       <r>    2.2911    1.0000 </r>
       <r>    2.4728    1.0000 </r>
       <r>    2.7408    1.0000 </r>
       <r>    2.8359    1.0000 </r>
       <r>    3.2415    1.0000 </r>
       <r>    3.9298    0.5206 </r>
       <r>    4.8332   -0.0433 </r>
       <r>    5.4696    0.0000 </r>
       <r>    6.0361    0.0000 </r>
       <r>    8.0298    0.0000 </r>
       <r>   10.7184    0.0000 </r>
       <r>   11.4399    0.0000 </r>
       <r>   12.2596    0.0000 </r>
       <r>   15.7447    0.0000 </r>
       <r>   16.4267    0.0000 </r>
       <r>   17.5154    0.0000 </r>
       <r>   17.9463    0.0000 </r>
       <r>   18.8890    0.0000 </r>
       <r>   19.7276    0.0000 </r>
      </set>
      <set comment="kpoint 22">
       <r>   -4.7125    1.0000 </r>
       <r>   -2.9419    1.0000 </r>
       <r>   -2.0980    1.0000 </r>
       <r>   -1.1189    1.0000 </r>
       <r>    0.7062    1.0000 </r>
       <r>    0.7822    1.0000 </r>
       <r>    0.7822    1.0000 </r>
       <r>    0.9694    1.0000 </r>
       <r>    0.9694    1.0000 </r>
       <r>    1.0359    1.0000 </r>
       <r>    1.0546    1.0000 </r>
       <r>    1.0546    1.0000 </r>
       <r>    1.2122    1.0000 </r>
       <r>    1.2448    1.0000 </r>
       <r>    1.2448    1.0000 </r>
       <r>    1.7560    1.0000 </r>
       <r>    1.7560    1.0000 </r>
       <r>    1.8501    1.0000 </r>
       <r>    1.8501    1.0000 </r>
       <r>    2.1141    1.0000 </r>
       <r>    2.1141    1.0000 </r>
       <r>    3.0036    1.0000 </r>
       <r>    3.0036    1.0000 </r>
       <r>    3.6980    0.0949 </r>
       <r>    9.2707    0.0000 </r>
       <r>   16.1773    0.0000 </r>
       <r>   19.3388    0.0000 </r>
       <r>   22.4052    0.0000 </r>
       <r>   23.5662    0.0000 </r>
       <r>   23.5662    0.0000 </r>
       <r>   24.2455    0.0000 </r>
       <r>   24.6443    0.0000 </r>
       <r>   24.6443    0.0000 </r>
       <r>   25.1017    0.0000 </r>
      </set>
      <set comment="kpoint 23">
       <r>   -4.2338    1.0000 </r>
       <r>   -2.6606    1.0000 </r>
       <r>   -1.5646    1.0000 </r>
       <r>   -0.8384    1.0000 </r>
       <r>    0.5141    1.0000 </r>
       <r>    0.5590    1.0000 </r>
       <r>    0.7220    1.0000 </r>
       <r>    0.8465    1.0000 </r>
       <r>    0.9353    1.0000 </r>
       <r>    1.0868    1.0000 </r>
       <r>    1.1138    1.0000 </r>
       <r>    1.2465    1.0000 </r>
       <r>    1.2531    1.0000 </r>
       <r>    1.3213    1.0000 </r>
       <r>    1.3721    1.0000 </r>
       <r>    1.6179    1.0000 </r>
       <r>    1.6967    1.0000 </r>
       <r>    1.7274    1.0000 </r>
       <r>    1.8511    1.0000 </r>
       <r>    1.9295    1.0000 </r>
       <r>    2.1399    1.0000 </r>
       <r>    2.8180    1.0000 </r>
       <r>    2.9792    1.0000 </r>
       <r>    4.9840   -0.0193 </r>
       <r>    9.6699    0.0000 </r>
       <r>   16.1238    0.0000 </r>
       <r>   18.7465    0.0000 </r>
       <r>   20.0349    0.0000 </r>
       <r>   20.3400    0.0000 </r>
       <r>   21.0960    0.0000 </r>
       <r>   21.9781    0.0000 </r>
       <r>   22.5225    0.0000 </r>
       <r>   23.0619    0.0000 </r>
       <r>   23.4754    0.0000 </r>
      </set>
      <set comment="kpoint 24">
       <r>   -2.9647    1.0000 </r>
       <r>   -1.7729    1.0000 </r>
       <r>   -0.8001    1.0000 </r>
       <r>   -0.4119    1.0000 </r>
       <r>    0.1646    1.0000 </r>
       <r>    0.2685    1.0000 </r>
       <r>    0.4579    1.0000 </r>
       <r>    0.7048    1.0000 </r>
       <r>    0.8829    1.0000 </r>
       <r>    1.0013    1.0000 </r>
       <r>    1.1483    1.0000 </r>
       <r>    1.3302    1.0000 </r>
       <r>    1.3884    1.0000 </r>
       <r>    1.4666    1.0000 </r>
       <r>    1.6006    1.0000 </r>
       <r>    1.7150    1.0000 </r>
       <r>    1.8203    1.0000 </r>
       <r>    1.8663    1.0000 </r>
       <r>    1.9701    1.0000 </r>
       <r>    2.0556    1.0000 </r>
       <r>    2.4628    1.0000 </r>
       <r>    2.9020    1.0000 </r>
       <r>    3.7825    0.4888 </r>
       <r>    6.5661    0.0000 </r>
       <r>   10.7310    0.0000 </r>
       <r>   13.3816    0.0000 </r>
       <r>   15.3857    0.0000 </r>
       <r>   16.8622    0.0000 </r>
       <r>   17.2243    0.0000 </r>
       <r>   18.5583    0.0000 </r>
       <r>   19.8980    0.0000 </r>
       <r>   20.7160    0.0000 </r>
       <r>   21.4923    0.0000 </r>
       <r>   21.9924    0.0000 </r>
      </set>
      <set comment="kpoint 25">
       <r>   -1.6261    1.0000 </r>
       <r>   -1.2357    1.0000 </r>
       <r>   -0.8333    1.0000 </r>
       <r>   -0.4971    1.0000 </r>
       <r>   -0.1254    1.0000 </r>
       <r>    0.0330    1.0000 </r>
       <r>    0.7040    1.0000 </r>
       <r>    0.9199    1.0000 </r>
       <r>    0.9510    1.0000 </r>
       <r>    1.1795    1.0000 </r>
       <r>    1.2678    1.0000 </r>
       <r>    1.2905    1.0000 </r>
       <r>    1.6981    1.0000 </r>
       <r>    1.8359    1.0000 </r>
       <r>    1.9532    1.0000 </r>
       <r>    2.0498    1.0000 </r>
       <r>    2.0934    1.0000 </r>
       <r>    2.1989    1.0000 </r>
       <r>    2.3489    1.0000 </r>
       <r>    2.7913    1.0108 </r>
       <r>    3.1694    1.0544 </r>
       <r>    3.4303    0.7026 </r>
       <r>    5.3328   -0.0002 </r>
       <r>    7.3754    0.0000 </r>
       <r>    9.0821    0.0000 </r>
       <r>   11.5535    0.0000 </r>
       <r>   12.7031    0.0000 </r>
       <r>   12.8695    0.0000 </r>
       <r>   16.8112    0.0000 </r>
       <r>   17.3270    0.0000 </r>
       <r>   17.9416    0.0000 </r>
       <r>   18.0801    0.0000 </r>
       <r>   18.6946    0.0000 </r>
       <r>   21.0469    0.0000 </r>
      </set>
      <set comment="kpoint 26">
       <r>   -1.5236    1.0000 </r>
       <r>   -1.1852    1.0000 </r>
       <r>   -0.6517    1.0000 </r>
       <r>   -0.4429    1.0000 </r>
       <r>   -0.3024    1.0000 </r>
       <r>   -0.0581    1.0000 </r>
       <r>    0.7094    1.0000 </r>
       <r>    0.9248    1.0000 </r>
       <r>    1.0687    1.0000 </r>
       <r>    1.1907    1.0000 </r>
       <r>    1.2126    1.0000 </r>
       <r>    1.6266    1.0000 </r>
       <r>    1.8437    1.0000 </r>
       <r>    2.0714    1.0000 </r>
       <r>    2.1547    1.0000 </r>
       <r>    2.2813    1.0000 </r>
       <r>    2.3072    1.0000 </r>
       <r>    2.3149    1.0000 </r>
       <r>    2.7131    1.0000 </r>
       <r>    3.9293    0.9350 </r>
       <r>    4.0030    0.2456 </r>
       <r>    4.4846   -0.0066 </r>
       <r>    5.6706    0.0000 </r>
       <r>    5.9169    0.0000 </r>
       <r>    8.0216    0.0000 </r>
       <r>    9.8363    0.0000 </r>
       <r>   12.4022    0.0000 </r>
       <r>   13.7737    0.0000 </r>
       <r>   14.4670    0.0000 </r>
       <r>   15.9001    0.0000 </r>
       <r>   16.1351    0.0000 </r>
       <r>   17.4756    0.0000 </r>
       <r>   20.3940    0.0000 </r>
       <r>   20.8676    0.0000 </r>
      </set>
      <set comment="kpoint 27">
       <r>   -1.5298    1.0000 </r>
       <r>   -1.1585    1.0000 </r>
       <r>   -1.1180    1.0000 </r>
       <r>   -0.3692    1.0000 </r>
       <r>   -0.2064    1.0000 </r>
       <r>    0.0389    1.0000 </r>
       <r>    0.6559    1.0000 </r>
       <r>    0.9406    1.0000 </r>
       <r>    0.9925    1.0000 </r>
       <r>    1.1559    1.0000 </r>
       <r>    1.2275    1.0000 </r>
       <r>    1.2297    1.0000 </r>
       <r>    1.4475    1.0000 </r>
       <r>    1.8894    1.0000 </r>
       <r>    2.0684    1.0000 </r>
       <r>    2.1427    1.0000 </r>
       <r>    2.2524    1.0000 </r>
       <r>    2.2999    1.0000 </r>
       <r>    2.7379    1.0000 </r>
       <r>    2.7581    1.0036 </r>
       <r>    3.3680    1.0701 </r>
       <r>    3.4273    0.7137 </r>
       <r>    4.0293    0.0872 </r>
       <r>    8.3210    0.0000 </r>
       <r>    9.7870    0.0000 </r>
       <r>   10.5854    0.0000 </r>
       <r>   12.0080    0.0000 </r>
       <r>   13.4848    0.0000 </r>
       <r>   15.9987    0.0000 </r>
       <r>   16.7254    0.0000 </r>
       <r>   18.2769    0.0000 </r>
       <r>   18.5803    0.0000 </r>
       <r>   20.7555    0.0000 </r>
       <r>   21.1965    0.0000 </r>
      </set>
      <set comment="kpoint 28">
       <r>   -3.0070    1.0000 </r>
       <r>   -1.4854    1.0000 </r>
       <r>   -1.1194    1.0000 </r>
       <r>   -0.4296    1.0000 </r>
       <r>    0.1201    1.0000 </r>
       <r>    0.3088    1.0000 </r>
       <r>    0.5559    1.0000 </r>
       <r>    0.5773    1.0000 </r>
       <r>    1.0663    1.0000 </r>
       <r>    1.0740    1.0000 </r>
       <r>    1.1118    1.0000 </r>
       <r>    1.3132    1.0000 </r>
       <r>    1.3179    1.0000 </r>
       <r>    1.3835    1.0000 </r>
       <r>    1.5002    1.0000 </r>
       <r>    1.7381    1.0000 </r>
       <r>    1.8393    1.0000 </r>
       <r>    1.8909    1.0000 </r>
       <r>    2.1661    1.0000 </r>
       <r>    2.4351    1.0000 </r>
       <r>    2.4632    1.0000 </r>
       <r>    2.8591    1.0000 </r>
       <r>    3.0166    1.1334 </r>
       <r>    7.5682    0.0000 </r>
       <r>    9.6457    0.0000 </r>
       <r>   13.5561    0.0000 </r>
       <r>   14.9589    0.0000 </r>
       <r>   18.0005    0.0000 </r>
       <r>   18.4689    0.0000 </r>
       <r>   18.4874    0.0000 </r>
       <r>   19.7417    0.0000 </r>
       <r>   20.0661    0.0000 </r>
       <r>   20.1616    0.0000 </r>
       <r>   22.0132    0.0000 </r>
      </set>
      <set comment="kpoint 29">
       <r>   -4.2022    1.0000 </r>
       <r>   -2.7825    1.0000 </r>
       <r>   -1.4843    1.0000 </r>
       <r>   -0.8166    1.0000 </r>
       <r>    0.5321    1.0000 </r>
       <r>    0.5836    1.0000 </r>
       <r>    0.7159    1.0000 </r>
       <r>    0.8394    1.0000 </r>
       <r>    0.9871    1.0000 </r>
       <r>    1.0312    1.0000 </r>
       <r>    1.0960    1.0000 </r>
       <r>    1.2219    1.0000 </r>
       <r>    1.2495    1.0000 </r>
       <r>    1.3285    1.0000 </r>
       <r>    1.3463    1.0000 </r>
       <r>    1.5800    1.0000 </r>
       <r>    1.6764    1.0000 </r>
       <r>    1.7280    1.0000 </r>
       <r>    1.9656    1.0000 </r>
       <r>    2.1346    1.0000 </r>
       <r>    2.2064    1.0000 </r>
       <r>    2.5621    1.0000 </r>
       <r>    2.9405    1.0000 </r>
       <r>    4.8651   -0.0223 </r>
       <r>    9.9530    0.0000 </r>
       <r>   15.6384    0.0000 </r>
       <r>   18.7408    0.0000 </r>
       <r>   20.1036    0.0000 </r>
       <r>   20.6618    0.0000 </r>
       <r>   21.0138    0.0000 </r>
       <r>   22.5493    0.0000 </r>
       <r>   22.9033    0.0000 </r>
       <r>   23.0138    0.0000 </r>
       <r>   23.6452    0.0000 </r>
      </set>
      <set comment="kpoint 30">
       <r>   -3.3137    1.0000 </r>
       <r>   -2.1407    1.0000 </r>
       <r>   -0.7607    1.0000 </r>
       <r>   -0.3871    1.0000 </r>
       <r>    0.1469    1.0000 </r>
       <r>    0.3706    1.0000 </r>
       <r>    0.4281    1.0000 </r>
       <r>    0.6043    1.0000 </r>
       <r>    0.8759    1.0000 </r>
       <r>    1.0272    1.0000 </r>
       <r>    1.0410    1.0000 </r>
       <r>    1.2176    1.0000 </r>
       <r>    1.3950    1.0000 </r>
       <r>    1.4162    1.0000 </r>
       <r>    1.5022    1.0000 </r>
       <r>    1.6510    1.0000 </r>
[...]
      <set comment="kpoint 63">
       <r>   -3.9805    1.0000 </r>
       <r>   -3.3202    1.0000 </r>
       <r>   -1.1764    1.0000 </r>
       <r>   -0.7237    1.0000 </r>
       <r>    0.5822    1.0000 </r>
       <r>    0.6809    1.0000 </r>
       <r>    0.8582    1.0000 </r>
       <r>    0.9126    1.0000 </r>
       <r>    1.0355    1.0000 </r>
       <r>    1.0461    1.0000 </r>
       <r>    1.0991    1.0000 </r>
       <r>    1.1898    1.0000 </r>
       <r>    1.2186    1.0000 </r>
       <r>    1.2793    1.0000 </r>
       <r>    1.3218    1.0000 </r>
       <r>    1.3697    1.0000 </r>
       <r>    1.6236    1.0000 </r>
       <r>    1.6851    1.0000 </r>
       <r>    1.9920    1.0000 </r>
       <r>    2.0215    1.0000 </r>
       <r>    2.1406    1.0000 </r>
       <r>    2.9505    1.0000 </r>
       <r>    3.1469    1.0115 </r>
       <r>    3.9028    0.1723 </r>
       <r>   12.0294    0.0000 </r>
       <r>   13.0495    0.0000 </r>
       <r>   18.6730    0.0000 </r>
       <r>   20.4199    0.0000 </r>
       <r>   20.9376    0.0000 </r>
       <r>   21.9322    0.0000 </r>
       <r>   22.8261    0.0000 </r>
       <r>   23.1371    0.0000 </r>
       <r>   23.1882    0.0000 </r>
       <r>   23.7320    0.0000 </r>
      </set>
      <set comment="kpoint 64">
       <r>   -3.1580    1.0000 </r>
       <r>   -2.4940    1.0000 </r>
       <r>   -0.5470    1.0000 </r>
       <r>   -0.3660    1.0000 </r>
       <r>    0.2139    1.0000 </r>
       <r>    0.4487    1.0000 </r>
       <r>    0.4799    1.0000 </r>
       <r>    0.5902    1.0000 </r>
       <r>    0.8071    1.0000 </r>
       <r>    0.8448    1.0000 </r>
       <r>    1.0442    1.0000 </r>
       <r>    1.2370    1.0000 </r>
       <r>    1.4243    1.0000 </r>
       <r>    1.4361    1.0000 </r>
       <r>    1.4717    1.0000 </r>
       <r>    1.6188    1.0000 </r>
       <r>    1.7412    1.0000 </r>
       <r>    1.8001    1.0000 </r>
       <r>    2.0755    1.0000 </r>
       <r>    2.1314    1.0000 </r>
       <r>    2.3589    1.0000 </r>
       <r>    2.7595    1.0000 </r>
       <r>    4.3066    0.0686 </r>
       <r>    4.7385    0.0000 </r>
       <r>   13.0558    0.0000 </r>
       <r>   13.3612    0.0000 </r>
       <r>   16.1658    0.0000 </r>
       <r>   16.2109    0.0000 </r>
       <r>   17.9845    0.0000 </r>
       <r>   18.2404    0.0000 </r>
       <r>   20.0011    0.0000 </r>
       <r>   20.0782    0.0000 </r>
       <r>   23.3000    0.0000 </r>
       <r>   23.6996    0.0000 </r>
      </set>
      <set comment="kpoint 65">
       <r>   -4.4015    1.0000 </r>
       <r>   -3.7992    1.0000 </r>
       <r>   -1.5592    1.0000 </r>
       <r>   -0.9808    1.0000 </r>
       <r>    0.8430    1.0000 </r>
       <r>    0.8430    1.0000 </r>
       <r>    0.9060    1.0000 </r>
       <r>    0.9607    1.0000 </r>
       <r>    0.9607    1.0000 </r>
       <r>    1.0409    1.0000 </r>
       <r>    1.0409    1.0000 </r>
       <r>    1.1540    1.0000 </r>
       <r>    1.1588    1.0000 </r>
       <r>    1.1588    1.0000 </r>
       <r>    1.7297    1.0000 </r>
       <r>    1.7297    1.0000 </r>
       <r>    1.8943    1.0000 </r>
       <r>    1.8943    1.0000 </r>
       <r>    1.9086    1.0000 </r>
       <r>    2.0121    1.0000 </r>
       <r>    2.1746    1.0000 </r>
       <r>    2.1746    1.0000 </r>
       <r>    2.9719    1.0000 </r>
       <r>    2.9719    1.3950 </r>
       <r>   11.7938    0.0000 </r>
       <r>   12.6056    0.0000 </r>
       <r>   22.4372    0.0000 </r>
       <r>   22.6258    0.0000 </r>
       <r>   23.7608    0.0000 </r>
       <r>   23.7608    0.0000 </r>
       <r>   24.0259    0.0000 </r>
       <r>   24.1824    0.0000 </r>
       <r>   24.1824    0.0000 </r>
       <r>   25.0798    0.0000 </r>
      </set>
     </set>
    </set>
   </array>
  </eigenvalues>
  <separator name="orbital magnetization" >
   <v name="MAGDIPOLOUT">      0.00000000      0.00000000      0.00000000</v>
  </separator>
  <dos>
   <i name="efermi">      3.81513553 </i>
   <total>
    <array>
     <dimension dim="1">gridpoints</dimension>
     <dimension dim="2">spin</dimension>
     <field>energy</field>
     <field>total</field>
     <field>integrated</field>
     <set>
      <set comment="spin 1">
       <r>    -6.2471     0.0000     0.0000 </r>
       <r>    -6.1370     0.0000     0.0000 </r>
       <r>    -6.0268     0.0000     0.0000 </r>
       <r>    -5.9167     0.0000     0.0000 </r>
       <r>    -5.8066     0.0000     0.0000 </r>
       <r>    -5.6964     0.0000     0.0000 </r>
       <r>    -5.5863     0.0000     0.0000 </r>
       <r>    -5.4762     0.0000     0.0000 </r>
       <r>    -5.3660     0.0000     0.0000 </r>
       <r>    -5.2559     0.0000     0.0000 </r>
       <r>    -5.1458     0.0000     0.0000 </r>
       <r>    -5.0356     0.0000     0.0000 </r>
       <r>    -4.9255     0.0000     0.0000 </r>
       <r>    -4.8154     0.0000     0.0000 </r>
       <r>    -4.7052     0.0055     0.0001 </r>
       <r>    -4.5951     0.0475     0.0027 </r>
       <r>    -4.4850     0.1128     0.0114 </r>
       <r>    -4.3748     0.2042     0.0286 </r>
       <r>    -4.2647     0.2666     0.0561 </r>
       <r>    -4.1546     0.2721     0.0856 </r>
       <r>    -4.0444     0.2719     0.1157 </r>
       <r>    -3.9343     0.2411     0.1436 </r>
       <r>    -3.8242     0.2519     0.1707 </r>
       <r>    -3.7140     0.2686     0.1992 </r>
       <r>    -3.6039     0.3036     0.2306 </r>
       <r>    -3.4938     0.3479     0.2664 </r>
       <r>    -3.3836     0.3988     0.3075 </r>
       <r>    -3.2735     0.4242     0.3536 </r>
       <r>    -3.1634     0.4440     0.4014 </r>
       <r>    -3.0532     0.4628     0.4513 </r>
       <r>    -2.9431     0.4870     0.5035 </r>
       <r>    -2.8330     0.5187     0.5588 </r>
       <r>    -2.7228     0.5583     0.6181 </r>
       <r>    -2.6127     0.6014     0.6819 </r>
       <r>    -2.5025     0.6480     0.7507 </r>
       <r>    -2.3924     0.6991     0.8249 </r>
       <r>    -2.2823     0.7027     0.9022 </r>
       <r>    -2.1721     0.7496     0.9821 </r>
       <r>    -2.0620     0.8097     1.0678 </r>
       <r>    -1.9519     0.8862     1.1610 </r>
       <r>    -1.8417     1.0417     1.2658 </r>
       <r>    -1.7316     1.2679     1.3931 </r>
       <r>    -1.6215     1.5222     1.5462 </r>
       <r>    -1.5113     2.4897     1.7559 </r>
       <r>    -1.4012     2.6375     2.0461 </r>
       <r>    -1.2911     2.7317     2.3341 </r>
       <r>    -1.1809     3.7382     2.6858 </r>
       <r>    -1.0708     3.8375     3.1053 </r>
       <r>    -0.9607     3.2200     3.5063 </r>
       <r>    -0.8505     3.8745     3.8972 </r>
       <r>    -0.7404     4.7279     4.3613 </r>
       <r>    -0.6303     5.0989     4.9760 </r>
       <r>    -0.5201     3.9131     5.5299 </r>
       <r>    -0.4100     6.9378     6.0592 </r>
       <r>    -0.2999     8.8224     7.1625 </r>
       <r>    -0.1897     4.5513     7.7622 </r>
       <r>    -0.0796     4.3612     8.2439 </r>
       <r>     0.0305    11.4204     9.0896 </r>
       <r>     0.1407     8.9212     9.9993 </r>
       <r>     0.2508     4.0315    11.0662 </r>
       <r>     0.3609     7.4293    11.6885 </r>
       <r>     0.4711    11.3269    12.9078 </r>
       <r>     0.5812    11.4272    13.9901 </r>
       <r>     0.6913     9.8851    15.2525 </r>
       <r>     0.8015    13.7278    16.5696 </r>
       <r>     0.9116    11.4679    17.9732 </r>
       <r>     1.0217    14.0033    19.5015 </r>
       <r>     1.1319    12.6637    21.0823 </r>
       <r>     1.2420    16.2798    22.4930 </r>
       <r>     1.3521    12.7593    24.0431 </r>
       <r>     1.4623    10.9659    25.5032 </r>
       <r>     1.5724     8.5042    26.5703 </r>
       <r>     1.6825    11.7630    27.8913 </r>
       <r>     1.7927    14.5204    29.6276 </r>
       <r>     1.9028    12.5481    31.1966 </r>
       <r>     2.0129    13.7394    32.5886 </r>
       <r>     2.1231    13.8536    34.1756 </r>
       <r>     2.2332    12.9562    35.7056 </r>
       <r>     2.3433    12.0209    36.8737 </r>
       <r>     2.4535    10.3654    38.0356 </r>
       <r>     2.5636     5.6458    38.9215 </r>
       <r>     2.6738     5.2043    39.5136 </r>
       <r>     2.7839     4.7892    40.0164 </r>
       <r>     2.8940     7.8510    40.8204 </r>
       <r>     3.0042     3.1704    41.2762 </r>
       <r>     3.1143     2.4925    41.5716 </r>
       <r>     3.2244     2.2787    41.8347 </r>
       <r>     3.3346     2.2256    42.0816 </r>
       <r>     3.4447     2.1462    42.3269 </r>
       <r>     3.5548     1.7125    42.5336 </r>
       <r>     3.6650     1.7341    42.7210 </r>
       <r>     3.7751     1.9319    42.9225 </r>
       <r>     3.8852     1.8444    43.1330 </r>
       <r>     3.9954     1.2940    43.3107 </r>
       <r>     4.1055     1.2018    43.4456 </r>
       <r>     4.2156     1.1862    43.5768 </r>
       <r>     4.3258     1.1927    43.7077 </r>
       <r>     4.4359     1.2003    43.8395 </r>
       <r>     4.5460     1.2094    43.9722 </r>
       <r>     4.6562     1.2316    44.1062 </r>
       <r>     4.7663     1.5947    44.2609 </r>
       <r>     4.8764     1.2215    44.4171 </r>
       <r>     4.9866     1.1406    44.5461 </r>
       <r>     5.0967     1.1468    44.6715 </r>
       <r>     5.2068     1.1302    44.7970 </r>
       <r>     5.3170     1.1147    44.9206 </r>
       <r>     5.4271     1.1044    45.0426 </r>
       <r>     5.5372     1.1026    45.1642 </r>
       <r>     5.6474     1.1155    45.2859 </r>
       <r>     5.7575     1.4895    45.4198 </r>
       <r>     5.8676     1.0888    45.5703 </r>
       <r>     5.9778     1.0068    45.6856 </r>
       <r>     6.0879     1.0240    45.7955 </r>
       <r>     6.1980     1.0458    45.9118 </r>
       <r>     6.3082     0.8522    46.0178 </r>
       <r>     6.4183     0.8275    46.1086 </r>
       <r>     6.5284     0.8831    46.2028 </r>
       <r>     6.6386     0.9390    46.3032 </r>
       <r>     6.7487     0.9787    46.4090 </r>
       <r>     6.8588     0.9856    46.5172 </r>
       <r>     6.9690     1.0535    46.6290 </r>
       <r>     7.0791     1.0676    46.7466 </r>
       <r>     7.1892     1.0073    46.8611 </r>
       <r>     7.2994     0.8351    46.9640 </r>
       <r>     7.4095     0.7271    47.0474 </r>
       <r>     7.5196     0.7307    47.1276 </r>
       <r>     7.6298     0.7009    47.2066 </r>
       <r>     7.7399     0.6748    47.2824 </r>
       <r>     7.8501     0.6481    47.3552 </r>
       <r>     7.9602     0.6174    47.4250 </r>
       <r>     8.0703     0.7104    47.4945 </r>
       <r>     8.1805     1.0008    47.5894 </r>
       <r>     8.2906     1.1903    47.7115 </r>
       <r>     8.4007     1.1822    47.8437 </r>
       <r>     8.5109     1.0508    47.9664 </r>
       <r>     8.6210     0.9579    48.0767 </r>
       <r>     8.7311     0.8864    48.1785 </r>
       <r>     8.8413     0.8439    48.2714 </r>
       <r>     8.9514     0.8005    48.3632 </r>
       <r>     9.0615     1.0285    48.4553 </r>
       <r>     9.1717     1.0341    48.5770 </r>
       <r>     9.2818     0.9652    48.6864 </r>
       <r>     9.3919     1.0939    48.7985 </r>
       <r>     9.5021     1.1475    48.9232 </r>
       <r>     9.6122     1.0865    49.0466 </r>
       <r>     9.7223     1.1201    49.1677 </r>
       <r>     9.8325     1.0382    49.2903 </r>
       <r>     9.9426     1.0050    49.4010 </r>
       <r>    10.0527     1.0390    49.5133 </r>
       <r>    10.1629     1.0945    49.6307 </r>
       <r>    10.2730     1.1453    49.7542 </r>
       <r>    10.3831     1.1823    49.8822 </r>
       <r>    10.4933     1.2471    50.0176 </r>
       <r>    10.6034     1.2006    50.1527 </r>
       <r>    10.7135     1.1232    50.2809 </r>
       <r>    10.8237     1.1152    50.4029 </r>
       <r>    10.9338     1.1511    50.5283 </r>
       <r>    11.0439     1.1386    50.6545 </r>
       <r>    11.1541     1.1237    50.7793 </r>
       <r>    11.2642     1.1128    50.9020 </r>
       <r>    11.3743     1.1403    51.0262 </r>
       <r>    11.4845     1.1243    51.1520 </r>
       <r>    11.5946     1.0083    51.2690 </r>
       <r>    11.7047     0.9822    51.3779 </r>
       <r>    11.8149     1.0263    51.4879 </r>
       <r>    11.9250     1.0782    51.6041 </r>
       <r>    12.0351     1.2530    51.7292 </r>
       <r>    12.1453     1.4030    51.8762 </r>
       <r>    12.2554     1.4647    52.0354 </r>
       <r>    12.3655     1.4078    52.1946 </r>
       <r>    12.4757     1.2502    52.3416 </r>
       <r>    12.5858     1.1722    52.4742 </r>
       <r>    12.6959     1.1782    52.6032 </r>
       <r>    12.8061     1.2052    52.7345 </r>
       <r>    12.9162     1.2662    52.8698 </r>
       <r>    13.0264     1.3943    53.0156 </r>
       <r>    13.1365     1.7546    53.1884 </r>
       <r>    13.2466     1.7604    53.3758 </r>
       <r>    13.3568     1.8171    53.5785 </r>
       <r>    13.4669     1.6093    53.7652 </r>
       <r>    13.5770     1.5475    53.9385 </r>
       <r>    13.6872     1.5137    54.1067 </r>
       <r>    13.7973     1.4968    54.2726 </r>
       <r>    13.9074     1.4896    54.4368 </r>
       <r>    14.0176     1.5480    54.6038 </r>
       <r>    14.1277     1.5946    54.7771 </r>
       <r>    14.2378     1.5863    54.9533 </r>
       <r>    14.3480     1.5648    55.1266 </r>
       <r>    14.4581     1.5673    55.2982 </r>
       <r>    14.5682     1.6399    55.4753 </r>
       <r>    14.6784     1.6720    55.6580 </r>
       <r>    14.7885     1.6216    55.8473 </r>
       <r>    14.8986     1.6857    56.0288 </r>
       <r>    15.0088     1.8773    56.2237 </r>
       <r>    15.1189     1.8808    56.4337 </r>
       <r>    15.2290     1.7194    56.6325 </r>
       <r>    15.3392     1.6812    56.8192 </r>
       <r>    15.4493     1.6540    57.0029 </r>
       <r>    15.5594     1.6366    57.1839 </r>
       <r>    15.6696     1.6442    57.3641 </r>
       <r>    15.7797     1.6589    57.5463 </r>
       <r>    15.8898     1.6992    57.7308 </r>
       <r>    16.0000     1.7339    57.9203 </r>
       <r>    16.1101     1.7336    58.1114 </r>
       <r>    16.2202     1.7310    58.3019 </r>
       <r>    16.3304     1.8882    58.5010 </r>
       <r>    16.4405     2.1756    58.7189 </r>
       <r>    16.5506     1.6611    58.9163 </r>
       <r>    16.6608     1.6238    59.0968 </r>
       <r>    16.7709     1.6067    59.2746 </r>
       <r>    16.8810     1.6085    59.4514 </r>
       <r>    16.9912     1.6759    59.6300 </r>
       <r>    17.1013     1.9493    59.8330 </r>
       <r>    17.2114     1.7712    60.0396 </r>
       <r>    17.3216     1.6495    60.2270 </r>
       <r>    17.4317     1.6345    60.4066 </r>
       <r>    17.5418     1.7356    60.5912 </r>
       <r>    17.6520     1.7506    60.7870 </r>
       <r>    17.7621     1.7408    60.9783 </r>
       <r>    17.8722     1.7595    61.1709 </r>
       <r>    17.9824     1.7933    61.3666 </r>
       <r>    18.0925     1.8327    61.5660 </r>
       <r>    18.2027     1.8911    61.7711 </r>
       <r>    18.3128     1.8429    61.9784 </r>
       <r>    18.4229     1.7720    62.1770 </r>
       <r>    18.5331     1.7646    62.3711 </r>
       <r>    18.6432     1.7979    62.5674 </r>
       <r>    18.7533     1.7713    62.7652 </r>
       <r>    18.8635     1.6740    62.9549 </r>
       <r>    18.9736     1.5911    63.1345 </r>
       <r>    19.0837     1.5292    63.3061 </r>
       <r>    19.1939     1.4898    63.4723 </r>
       <r>    19.3040     1.4571    63.6345 </r>
       <r>    19.4141     1.4295    63.7935 </r>
       <r>    19.5243     1.4017    63.9494 </r>
       <r>    19.6344     1.3801    64.1024 </r>
       <r>    19.7445     1.3489    64.2533 </r>
       <r>    19.8547     1.3564    64.4018 </r>
       <r>    19.9648     1.3752    64.5522 </r>
       <r>    20.0749     1.3746    64.7039 </r>
       <r>    20.1851     1.3654    64.8551 </r>
       <r>    20.2952     1.3282    65.0034 </r>
       <r>    20.4053     1.2907    65.1476 </r>
       <r>    20.5155     1.2599    65.2881 </r>
       <r>    20.6256     1.2247    65.4249 </r>
       <r>    20.7357     1.1918    65.5580 </r>
       <r>    20.8459     1.1649    65.6877 </r>
       <r>    20.9560     1.1092    65.8137 </r>
       <r>    21.0661     0.9888    65.9300 </r>
       <r>    21.1763     0.9358    66.0354 </r>
       <r>    21.2864     0.9038    66.1366 </r>
       <r>    21.3965     0.8842    66.2350 </r>
       <r>    21.5067     0.8645    66.3314 </r>
       <r>    21.6168     0.8437    66.4254 </r>
       <r>    21.7269     0.8222    66.5172 </r>
       <r>    21.8371     0.8039    66.6066 </r>
       <r>    21.9472     0.7900    66.6944 </r>
       <r>    22.0573     0.7739    66.7804 </r>
       <r>    22.1675     0.7871    66.8660 </r>
       <r>    22.2776     0.8305    66.9551 </r>
       <r>    22.3877     0.8027    67.0460 </r>
       <r>    22.4979     0.7228    67.1290 </r>
       <r>    22.6080     0.7002    67.2073 </r>
       <r>    22.7181     0.6793    67.2833 </r>
       <r>    22.8283     0.6601    67.3570 </r>
       <r>    22.9384     0.6404    67.4286 </r>
       <r>    23.0485     0.6348    67.4987 </r>
       <r>    23.1587     0.6397    67.5689 </r>
       <r>    23.2688     0.6821    67.6422 </r>
       <r>    23.3789     0.5632    67.7105 </r>
       <r>    23.4891     0.4816    67.7685 </r>
       <r>    23.5992     0.4072    67.8175 </r>
       <r>    23.7094     0.3846    67.8587 </r>
       <r>    23.8195     0.2441    67.8962 </r>
       <r>    23.9296     0.2045    67.9209 </r>
       <r>    24.0398     0.1648    67.9412 </r>
       <r>    24.1499     0.1266    67.9572 </r>
       <r>    24.2600     0.0941    67.9693 </r>
       <r>    24.3702     0.0732    67.9784 </r>
       <r>    24.4803     0.0562    67.9855 </r>
       <r>    24.5904     0.0418    67.9909 </r>
       <r>    24.7006     0.0295    67.9948 </r>
       <r>    24.8107     0.0194    67.9975 </r>
       <r>    24.9208     0.0097    67.9991 </r>
       <r>    25.0310     0.0032    67.9998 </r>
       <r>    25.1411     0.0009    68.0000 </r>
       <r>    25.2512     0.0001    68.0000 </r>
       <r>    25.3614     0.0000    68.0000 </r>
       <r>    25.4715     0.0000    68.0000 </r>
       <r>    25.5816     0.0000    68.0000 </r>
       <r>    25.6918     0.0000    68.0000 </r>
       <r>    25.8019     0.0000    68.0000 </r>
       <r>    25.9120     0.0000    68.0000 </r>
       <r>    26.0222     0.0000    68.0000 </r>
       <r>    26.1323     0.0000    68.0000 </r>
       <r>    26.2424     0.0000    68.0000 </r>
       <r>    26.3526     0.0000    68.0000 </r>
       <r>    26.4627     0.0000    68.0000 </r>
       <r>    26.5728     0.0000    68.0000 </r>
       <r>    26.6830     0.0000    68.0000 </r>
       <r>    26.7931     0.0000    68.0000 </r>
      </set>
     </set>
    </array>
   </total>
  </dos>
 </calculation>
 <structure name="finalpos" >
  <crystal>
   <varray name="basis" >
    <v>      -5.46362047       3.56547010       5.46362047 </v>
    <v>      -3.56547010       5.46362047       5.46362047 </v>
    <v>      -5.46362047       5.46362047       3.56547010 </v>
   </varray>
   <i name="volume">     52.21687292 </i>
   <varray name="rec_basis" >
    <v>      -0.19860962      -0.32821903       0.19860962 </v>
    <v>       0.32821903       0.19860962       0.19860962 </v>
    <v>      -0.19860962       0.19860962      -0.32821903 </v>
   </varray>
  </crystal>
  <varray name="positions" >
   <v>       0.25334331       0.25334331       0.25334331 </v>
   <v>       0.00000000       0.00000000       0.00000000 </v>
   <v>       0.74665669       0.74665669       0.74665669 </v>
   <v>       0.50000000       0.50000000       0.50000000 </v>
  </varray>
 </structure>
</modeling>
